 vasp.5.4.4.18Apr17-6-g9f103f2a35 (build Aug 01 2018 12:10:22) complex          
  
 executed on        TETRALITH-B01 date 2020.10.15  12:12:30
 running on   32 total cores
 distrk:  each k-point on   32 cores,    1 groups
 distr:  one band on NCORES_PER_BAND=  16 cores,    2 groups


--------------------------------------------------------------------------------------------------------


 INCAR:
 POTCAR:    PAW_PBE Ce 23Dec2003                  
 POTCAR:    PAW_PBE O 08Apr2002                   

 ----------------------------------------------------------------------------- 
|                                                                             |
|           W    W    AA    RRRRR   N    N  II  N    N   GGGG   !!!           |
|           W    W   A  A   R    R  NN   N  II  NN   N  G    G  !!!           |
|           W    W  A    A  R    R  N N  N  II  N N  N  G       !!!           |
|           W WW W  AAAAAA  RRRRR   N  N N  II  N  N N  G  GGG   !            |
|           WW  WW  A    A  R   R   N   NN  II  N   NN  G    G                |
|           W    W  A    A  R    R  N    N  II  N    N   GGGG   !!!           |
|                                                                             |
|      For optimal performance we recommend to set                            |
|        NCORE= 4 - approx SQRT( number of cores)                             |
|      NCORE specifies how many cores store one orbital (NPAR=cpu/NCORE).     |
|      This setting can  greatly improve the performance of VASP for DFT.     |
|      The default,   NCORE=1            might be grossly inefficient         |
|      on modern multi-core architectures or massively parallel machines.     |
|      Do your own testing !!!!                                               |
|      Unfortunately you need to use the default for GW and RPA calculations. |
|      (for HF NCORE is supported but not extensively tested yet)             |
|                                                                             |
 ----------------------------------------------------------------------------- 

 POTCAR:    PAW_PBE Ce 23Dec2003                  
   VRHFIN =Ce : [core= Kr 4d10]                                                 
   LEXCH  = PE                                                                  
   EATOM  =  1063.0861 eV,   78.1346 Ry                                         
                                                                                
   TITEL  = PAW_PBE Ce 23Dec2003                                                
   LULTRA =        F    use ultrasoft PP ?                                      
   IUNSCR =        1    unscreen: 0-lin 1-nonlin 2-no                           
   RPACOR =    1.800    partial core radius                                     
   POMASS =  140.115; ZVAL   =   12.000    mass and valenz                      
   RCORE  =    2.700    outmost cutoff radius                                   
   RWIGS  =    2.500; RWIGS  =    1.323    wigner-seitz radius (au A)           
   ENMAX  =  273.042; ENMIN  =  204.781 eV                                      
   RCLOC  =    1.810    cutoff for local pot                                    
   LCOR   =        T    correct aug charges                                     
   LPAW   =        T    paw PP                                                  
   EAUG   =  580.196                                                            
   DEXC   =    0.000                                                            
   RMAX   =    2.749    core radius for proj-oper                               
   RAUG   =    1.300    factor for augmentation sphere                          
   RDEP   =    2.810    radius for radial grids                                 
   RDEPT  =    2.162    core radius for aug-charge                              
                                                                                
   Atomic configuration                                                         
   14 entries                                                                   
     n  l   j            E        occ.                                          
     1  0  0.50    -40258.9816   2.0000                                         
     2  0  0.50     -6445.4884   2.0000                                         
     2  1  1.50     -5771.7470   6.0000                                         
     3  0  0.50     -1387.9739   2.0000                                         
     3  1  1.50     -1173.8158   6.0000                                         
     3  2  2.50      -869.9108  10.0000                                         
     4  0  0.50      -280.8706   2.0000                                         
     4  1  1.50      -210.9815   6.0000                                         
     4  2  2.50      -110.4558  10.0000                                         
     5  0  0.50       -40.5819   2.0000                                         
     6  0  0.50        -3.7444   2.0000                                         
     5  1  1.50       -23.2188   6.0000                                         
     5  2  2.50        -3.0598   1.0000                                         
     4  3  2.50        -5.3970   1.0000                                         
   Description                                                                  
     l       E           TYP  RCUT    TYP  RCUT                                 
     0    -40.5819164     23  1.500                                             
     0     -3.7443793     23  2.300                                             
     1    -23.2188445     23  2.000                                             
     1     40.8174780     23  2.300                                             
     2     -3.0597556     23  2.500                                             
     2     13.6058260     23  2.500                                             
     3     -5.3970469     23  2.700                                             
     3     -5.8505052     23  2.700                                             
  local pseudopotential read in
  partial core-charges read in
  partial kinetic energy density read in
  atomic valenz-charges read in
  non local Contribution for L=           0  read in
    real space projection operators read in
  non local Contribution for L=           0  read in
    real space projection operators read in
  non local Contribution for L=           1  read in
    real space projection operators read in
  non local Contribution for L=           1  read in
    real space projection operators read in
  non local Contribution for L=           2  read in
    real space projection operators read in
  non local Contribution for L=           2  read in
    real space projection operators read in
  non local Contribution for L=           3  read in
    real space projection operators read in
  non local Contribution for L=           3  read in
    real space projection operators read in
    PAW grid and wavefunctions read in
 
   number of l-projection  operators is LMAX  =           8
   number of lm-projection operators is LMMAX =          32
 
 POTCAR:    PAW_PBE O 08Apr2002                   
   VRHFIN =O: s2p4                                                              
   LEXCH  = PE                                                                  
   EATOM  =   432.3788 eV,   31.7789 Ry                                         
                                                                                
   TITEL  = PAW_PBE O 08Apr2002                                                 
   LULTRA =        F    use ultrasoft PP ?                                      
   IUNSCR =        1    unscreen: 0-lin 1-nonlin 2-no                           
   RPACOR =    1.200    partial core radius                                     
   POMASS =   16.000; ZVAL   =    6.000    mass and valenz                      
   RCORE  =    1.520    outmost cutoff radius                                   
   RWIGS  =    1.550; RWIGS  =    0.820    wigner-seitz radius (au A)           
   ENMAX  =  400.000; ENMIN  =  300.000 eV                                      
   ICORE  =        2    local potential                                         
   LCOR   =        T    correct aug charges                                     
   LPAW   =        T    paw PP                                                  
   EAUG   =  605.392                                                            
   DEXC   =    0.000                                                            
   RMAX   =    1.553    core radius for proj-oper                               
   RAUG   =    1.300    factor for augmentation sphere                          
   RDEP   =    1.550    radius for radial grids                                 
   RDEPT  =    1.329    core radius for aug-charge                              
                                                                                
   Atomic configuration                                                         
    4 entries                                                                   
     n  l   j            E        occ.                                          
     1  0  0.50      -514.6923   2.0000                                         
     2  0  0.50       -23.9615   2.0000                                         
     2  1  0.50        -9.0305   4.0000                                         
     3  2  1.50        -9.5241   0.0000                                         
   Description                                                                  
     l       E           TYP  RCUT    TYP  RCUT                                 
     0    -23.9615318     23  1.200                                             
     0     -9.5240782     23  1.200                                             
     1     -9.0304911     23  1.520                                             
     1      8.1634956     23  1.520                                             
     2     -9.5240782      7  1.500                                             
  local pseudopotential read in
  partial core-charges read in
  partial kinetic energy density read in
  kinetic energy density of atom read in
  atomic valenz-charges read in
  non local Contribution for L=           0  read in
    real space projection operators read in
  non local Contribution for L=           0  read in
    real space projection operators read in
  non local Contribution for L=           1  read in
    real space projection operators read in
  non local Contribution for L=           1  read in
    real space projection operators read in
    PAW grid and wavefunctions read in
 
   number of l-projection  operators is LMAX  =           4
   number of lm-projection operators is LMMAX =           8
 
  PAW_PBE Ce 23Dec2003                  :
 energy of atom  1       EATOM=-1063.0861
 kinetic energy error for atom=    0.0451 (will be added to EATOM!!)
  PAW_PBE O 08Apr2002                   :
 energy of atom  2       EATOM= -432.3788
 kinetic energy error for atom=    0.1156 (will be added to EATOM!!)
 
 
 POSCAR: Ceria 111 3x3                           
  positions in direct lattice
  No initial velocities read in
 exchange correlation table for  LEXCH =        8
   RHO(1)=    0.500       N(1)  =     2000
   RHO(2)=  100.500       N(2)  =     4000
 


--------------------------------------------------------------------------------------------------------


 ion  position               nearest neighbor table
   1  0.000  0.000  0.000-   2 2.28   3 2.28   3 2.28   2 2.28   2 2.28   3 2.28
   2  0.333  0.667  0.022-   1 2.28   1 2.28   1 2.28
   3  0.667  0.333  0.978-   1 2.28   1 2.28   1 2.28
 
  LATTYP: Found a hexagonal cell.
 ALAT       =     3.7199473545
 C/A-ratio  =     9.2904540594
  
  Lattice vectors:
  
 A1 = (   3.7199473545,   0.0000000000,   0.0000000000)
 A2 = (  -1.8599736772,   3.2215689097,   0.0000000000)
 A3 = (   0.0000000000,   0.0000000000,  34.5600000000)


Analysis of symmetry for initial positions (statically):
=====================================================================
 Subroutine PRICEL returns:
 Original cell was already a primitive cell.
 

 Routine SETGRP: Setting up the symmetry group for a 
 hexagonal supercell.


 Subroutine GETGRP returns: Found 12 space group operations
 (whereof 12 operations were pure point group operations)
 out of a pool of 24 trial point group operations.


The static configuration has the point symmetry D_3d.


Analysis of symmetry for dynamics (positions and initial velocities):
=====================================================================
 Subroutine PRICEL returns:
 Original cell was already a primitive cell.
 

 Routine SETGRP: Setting up the symmetry group for a 
 hexagonal supercell.


 Subroutine GETGRP returns: Found 12 space group operations
 (whereof 12 operations were pure point group operations)
 out of a pool of 24 trial point group operations.


The dynamic configuration has the point symmetry D_3d.


 Subroutine INISYM returns: Found 12 space group operations
 (whereof 12 operations are pure point group operations),
 and found     1 'primitive' translations

 
 
 KPOINTS: 1x1x1                                   

Automatic generation of k-mesh.
Space group operators:
 irot       det(A)        alpha          n_x          n_y          n_z        tau_x        tau_y        tau_z
    1     1.000000     0.000000     1.000000     0.000000     0.000000     0.000000     0.000000     0.000000
    2    -1.000000     0.000000     1.000000     0.000000     0.000000     0.000000     0.000000     0.000000
    3     1.000000   120.000000     0.000000     0.000000    -1.000000     0.000000     0.000000     0.000000
    4    -1.000000   120.000000     0.000000     0.000000    -1.000000     0.000000     0.000000     0.000000
    5     1.000000   120.000000     0.000000     0.000000     1.000000     0.000000     0.000000     0.000000
    6    -1.000000   120.000000     0.000000     0.000000     1.000000     0.000000     0.000000     0.000000
    7     1.000000   180.000000     1.000000    -0.000000     0.000000     0.000000     0.000000     0.000000
    8    -1.000000   180.000000     1.000000    -0.000000     0.000000     0.000000     0.000000     0.000000
    9     1.000000   180.000000     0.500000    -0.866025     0.000000     0.000000     0.000000     0.000000
   10    -1.000000   180.000000     0.500000    -0.866025     0.000000     0.000000     0.000000     0.000000
   11     1.000000   180.000000    -0.500000    -0.866025     0.000000     0.000000     0.000000     0.000000
   12    -1.000000   180.000000    -0.500000    -0.866025     0.000000     0.000000     0.000000     0.000000
 
 Subroutine IBZKPT returns following result:
 ===========================================
 
 Found     10 irreducible k-points:
 
 Following reciprocal coordinates:
            Coordinates               Weight
  0.000000  0.000000  0.000000      1.000000
  0.125000  0.000000  0.000000      6.000000
  0.250000  0.000000  0.000000      6.000000
  0.375000  0.000000  0.000000      6.000000
  0.500000  0.000000  0.000000      3.000000
  0.125000  0.125000  0.000000      6.000000
  0.250000  0.125000  0.000000     12.000000
  0.375000  0.125000  0.000000     12.000000
  0.250000  0.250000  0.000000      6.000000
  0.375000  0.250000  0.000000      6.000000
 
 Following cartesian coordinates:
            Coordinates               Weight
  0.000000  0.000000  0.000000      1.000000
  0.032259  0.018624  0.000000      6.000000
  0.064517  0.037249  0.000000      6.000000
  0.096776  0.055873  0.000000      6.000000
  0.129034  0.074498  0.000000      3.000000
  0.032259  0.055873  0.000000      6.000000
  0.064517  0.074498  0.000000     12.000000
  0.096776  0.093122  0.000000     12.000000
  0.064517  0.111747  0.000000      6.000000
  0.096776  0.130371  0.000000      6.000000
 


--------------------------------------------------------------------------------------------------------




 Dimension of arrays:
   k-points           NKPTS =     10   k-points in BZ     NKDIM =     10   number of bands    NBANDS=     16
   number of dos      NEDOS =    301   number of ions     NIONS =      3
   non local maximal  LDIM  =      8   non local SUM 2l+1 LMDIM =     32
   total plane-waves  NPLWV = 138240
   max r-space proj   IRMAX =      1   max aug-charges    IRDMAX= 140931
   dimension x,y,z NGX =    24 NGY =   24 NGZ =  240
   dimension x,y,z NGXF=    48 NGYF=   48 NGZF=  480
   support grid    NGXF=    96 NGYF=   96 NGZF=  960
   ions per type =               1   2
   NGX,Y,Z   is equivalent  to a cutoff of  10.73, 10.73, 11.54 a.u.
   NGXF,Y,Z  is equivalent  to a cutoff of  21.45, 21.45, 23.09 a.u.

 SYSTEM =  CeO2                                    
 POSCAR =  Ceria 111 3x3                           

 Startparameter for this run:
   NWRITE =      2    write-flag & timer
   PREC   = accura    normal or accurate (medium, high low for compatibility)
   ISTART =      0    job   : 0-new  1-cont  2-samecut
   ICHARG =      2    charge: 1-file 2-atom 10-const
   ISPIN  =      1    spin polarized calculation?
   LNONCOLLINEAR =      F non collinear calculations
   LSORBIT =      F    spin-orbit coupling
   INIWAV =      1    electr: 0-lowe 1-rand  2-diag
   LASPH  =      T    aspherical Exc in radial PAW
   METAGGA=      F    non-selfconsistent MetaGGA calc.

 Electronic Relaxation 1
   ENCUT  =  400.0 eV  29.40 Ry    5.42 a.u.   6.07  6.07 56.36*2*pi/ulx,y,z
   ENINI  =  400.0     initial cutoff
   ENAUG  =  605.4 eV  augmentation charge cutoff
   NELM   =    140;   NELMIN=  4; NELMDL=  0     # of ELM steps 
   EDIFF  = 0.1E-05   stopping-criterion for ELM
   LREAL  =      F    real-space projection
   NLSPLINE    = F    spline interpolate recip. space projectors
   LCOMPAT=      F    compatible to vasp.4.4
   GGA_COMPAT  = T    GGA compatible to vasp.4.4-vasp.4.6
   LMAXPAW     = -100 max onsite density
   LMAXMIX     =    6 max onsite mixed and CHGCAR
   VOSKOWN=      0    Vosko Wilk Nusair interpolation
   ROPT   =    0.00000   0.00000
 Ionic relaxation
   EDIFFG = -.1E-01   stopping-criterion for IOM
   NSW    =      0    number of steps for IOM
   NBLOCK =      1;   KBLOCK =      1    inner block; outer block 
   IBRION =     -1    ionic relax: 0-MD 1-quasi-New 2-CG
   NFREE  =      1    steps in history (QN), initial steepest desc. (CG)
   ISIF   =      2    stress and relaxation
   IWAVPR =     10    prediction:  0-non 1-charg 2-wave 3-comb
   ISYM   =      2    0-nonsym 1-usesym 2-fastsym
   LCORR  =      T    Harris-Foulkes like correction to forces

   POTIM  = 0.5000    time-step for ionic-motion
   TEIN   =    0.0    initial temperature
   TEBEG  =    0.0;   TEEND  =   0.0 temperature during run
   SMASS  =  -3.00    Nose mass-parameter (am)
   estimated Nose-frequenzy (Omega)   =  0.10E-29 period in steps =****** mass=  -0.316E-27a.u.
   SCALEE = 1.0000    scale energy and forces
   NPACO  =    256;   APACO  = 16.0  distance and # of slots for P.C.
   PSTRESS=    0.0 pullay stress

  Mass of Ions in am
   POMASS = 140.12 16.00
  Ionic Valenz
   ZVAL   =  12.00  6.00
  Atomic Wigner-Seitz radii
   RWIGS  =  -1.00 -1.00
  virtual crystal weights 
   VCA    =   1.00  1.00
   NELECT =      24.0000    total number of electrons
   NUPDOWN=      -1.0000    fix difference up-down

 DOS related values:
   EMIN   =  10.00;   EMAX   =-10.00  energy-range for DOS
   EFERMI =   0.00
   ISMEAR =     0;   SIGMA  =   0.00  broadening in eV -4-tet -1-fermi 0-gaus

 Electronic relaxation 2 (details)
   IALGO  =     38    algorithm
   LDIAG  =      T    sub-space diagonalisation (order eigenvalues)
   LSUBROT=      F    optimize rotation matrix (better conditioning)
   TURBO    =      0    0=normal 1=particle mesh
   IRESTART =      0    0=no restart 2=restart with 2 vectors
   NREBOOT  =      0    no. of reboots
   NMIN     =      0    reboot dimension
   EREF     =   0.00    reference energy to select bands
   IMIX   =      4    mixing-type and parameters
     AMIX     =   0.40;   BMIX     =  1.00
     AMIX_MAG =   1.60;   BMIX_MAG =  1.00
     AMIN     =   0.10
     WC   =   100.;   INIMIX=   1;  MIXPRE=   1;  MAXMIX= -45

 Intra band minimization:
   WEIMIN = 0.0000     energy-eigenvalue tresh-hold
   EBREAK =  0.16E-07  absolut break condition
   DEPER  =   0.30     relativ break condition  

   TIME   =   0.40     timestep for ELM

  volume/ion in A,a.u.               =     138.06       931.65
  Fermi-wavevector in a.u.,A,eV,Ry     =   0.633509  1.197158  5.460471  0.401333
  Thomas-Fermi vector in A             =   1.697189
 
 Write flags
   LWAVE        =      F    write WAVECAR
   LDOWNSAMPLE  =      F    k-point downsampling of WAVECAR
   LCHARG       =      F    write CHGCAR
   LVTOT        =      F    write LOCPOT, total local potential
   LVHAR        =      F    write LOCPOT, Hartree potential only
   LELF         =      F    write electronic localiz. function (ELF)
   LORBIT       =     10    0 simple, 1 ext, 2 COOP (PROOUT), +10 PAW based schemes


 Dipole corrections
   LMONO  =      F    monopole corrections only (constant potential shift)
   LDIPOL =      F    correct potential (dipole corrections)
   IDIPOL =      0    1-x, 2-y, 3-z, 4-all directions 
   EPSILON=  1.0000000 bulk dielectric constant

 LDA+U is selected, type is set to LDAUTYPE =  2
   angular momentum for each species LDAUL =     3   -1
   U (eV)           for each species LDAUU =   5.0  0.0
   J (eV)           for each species LDAUJ =   0.0  0.0
 Exchange correlation treatment:
   GGA     =    PE    GGA type
   LEXCH   =     8    internal setting for exchange type
   VOSKOWN=      0    Vosko Wilk Nusair interpolation
   LHFCALC =     F    Hartree Fock is set to
   LHFONE  =     F    Hartree Fock one center treatment
   AEXX    =    0.0000 exact exchange contribution

 Linear response parameters
   LEPSILON=     F    determine dielectric tensor
   LRPA    =     F    only Hartree local field effects (RPA)
   LNABLA  =     F    use nabla operator in PAW spheres
   LVEL    =     F    velocity operator in full k-point grid
   LINTERFAST=   F  fast interpolation
   KINTER  =     0    interpolate to denser k-point grid
   CSHIFT  =0.1000    complex shift for real part using Kramers Kronig
   OMEGAMAX=  -1.0    maximum frequency
   DEG_THRESHOLD= 0.2000000E-02 threshold for treating states as degnerate
   RTIME   =   -0.100 relaxation time in fs
  (WPLASMAI=    0.000 imaginary part of plasma frequency in eV, 0.658/RTIME)
   DFIELD  = 0.0000000 0.0000000 0.0000000 field for delta impulse in time
 
 Orbital magnetization related:
   ORBITALMAG=     F  switch on orbital magnetization
   LCHIMAG   =     F  perturbation theory with respect to B field
   DQ        =  0.001000  dq finite difference perturbation B field
   LLRAUG    =     F  two centre corrections for induced B field



--------------------------------------------------------------------------------------------------------


 Static calculation
 charge density and potential will be updated during run
 non-spin polarized calculation
 Variant of blocked Davidson
 Davidson routine will perform the subspace rotation
 perform sub-space diagonalisation
    after iterative eigenvector-optimisation
 modified Broyden-mixing scheme, WC =      100.0
 initial mixing is a Kerker type mixing with AMIX =  0.4000 and BMIX =      1.0000
 Hartree-type preconditioning will be used
 using additional bands            4
 reciprocal scheme for non local part
 use partial core corrections
 calculate Harris-corrections to forces 
   (improved forces if not selfconsistent)
 use gradient corrections 
 use of overlap-Matrix (Vanderbilt PP)
 Gauss-broadening in eV      SIGMA  =   0.00


--------------------------------------------------------------------------------------------------------


  energy-cutoff  :      400.00
  volume of cell :      414.17
      direct lattice vectors                 reciprocal lattice vectors
     3.719947354  0.000000000  0.000000000     0.268821009  0.155203882  0.000000000
    -1.859973677  3.221568910  0.000000000     0.000000000  0.310407763  0.000000000
     0.000000000  0.000000000 34.560000000     0.000000000  0.000000000  0.028935185

  length of vectors
     3.719947354  3.719947354 34.560000000     0.310407763  0.310407763  0.028935185


 
 k-points in units of 2pi/SCALE and weight: 1x1x1                                   
   0.00000000  0.00000000  0.00000000       0.016
   0.03225852  0.01862447  0.00000000       0.094
   0.06451704  0.03724893  0.00000000       0.094
   0.09677556  0.05587340  0.00000000       0.094
   0.12903408  0.07449786  0.00000000       0.047
   0.03225852  0.05587340  0.00000000       0.094
   0.06451704  0.07449786  0.00000000       0.188
   0.09677556  0.09312233  0.00000000       0.188
   0.06451704  0.11174679  0.00000000       0.094
   0.09677556  0.13037126  0.00000000       0.094
 
 k-points in reciprocal lattice and weights: 1x1x1                                   
   0.00000000  0.00000000  0.00000000       0.016
   0.12500000  0.00000000  0.00000000       0.094
   0.25000000  0.00000000  0.00000000       0.094
   0.37500000  0.00000000  0.00000000       0.094
   0.50000000  0.00000000  0.00000000       0.047
   0.12500000  0.12500000  0.00000000       0.094
   0.25000000  0.12500000  0.00000000       0.188
   0.37500000  0.12500000  0.00000000       0.188
   0.25000000  0.25000000  0.00000000       0.094
   0.37500000  0.25000000  0.00000000       0.094
 
 position of ions in fractional coordinates (direct lattice) 
   0.00000000  0.00000000  0.00000000
   0.33333300  0.66666600  0.02197140
   0.66666600  0.33333300  0.97802860
 
 position of ions in cartesian coordinates  (Angst):
   0.00000000  0.00000000  0.00000000
   0.00000000  2.14771046  0.75933158
   1.85997182  1.07385523 33.80066842
 


--------------------------------------------------------------------------------------------------------


 k-point  1 :   0.0000 0.0000 0.0000  plane waves:    7421
 k-point  2 :   0.1250 0.0000 0.0000  plane waves:    7479
 k-point  3 :   0.2500 0.0000 0.0000  plane waves:    7501
 k-point  4 :   0.3750 0.0000 0.0000  plane waves:    7534
 k-point  5 :   0.5000 0.0000 0.0000  plane waves:    7524
 k-point  6 :   0.1250 0.1250 0.0000  plane waves:    7504
 k-point  7 :   0.2500 0.1250 0.0000  plane waves:    7502
 k-point  8 :   0.3750 0.1250 0.0000  plane waves:    7544
 k-point  9 :   0.2500 0.2500 0.0000  plane waves:    7580
 k-point 10 :   0.3750 0.2500 0.0000  plane waves:    7586

 maximum and minimum number of plane-waves per node :       485      451

 maximum number of plane-waves:      7586
 maximum index in each direction: 
   IXMAX=    6   IYMAX=    6   IZMAX=   56
   IXMIN=   -6   IYMIN=   -6   IZMIN=  -56


 parallel 3D FFT for wavefunctions:
    minimum data exchange during FFTs selected (reduces bandwidth)
 parallel 3D FFT for charge:
    minimum data exchange during FFTs selected (reduces bandwidth)


 total amount of memory used by VASP MPI-rank0    41686. kBytes
=======================================================================

   base      :      30000. kBytes
   nonl-proj :       2449. kBytes
   fftplans  :       5492. kBytes
   grid      :       3049. kBytes
   one-center:         49. kBytes
   wavefun   :        647. kBytes
 
     INWAV:  cpu time    0.0000: real time    0.0000
 Broyden mixing: mesh for mixing (old mesh)
   NGX = 13   NGY = 13   NGZ =113
  (NGX  = 48   NGY  = 48   NGZ  =480)
  gives a total of  19097 points

 initial charge density was supplied:
 charge density of overlapping atoms calculated
 number of electron      24.0000000 magnetization 
 keeping initial charge density in first step


--------------------------------------------------------------------------------------------------------


 Maximum index for augmentation-charges         3759 (set IRDMAX)


--------------------------------------------------------------------------------------------------------


 First call to EWALD:  gamma=   0.238
 Maximum number of real-space cells 6x 6x 1
 Maximum number of reciprocal cells 2x 2x11

    FEWALD:  cpu time    0.0015: real time    0.0015


--------------------------------------- Iteration      1(   1)  ---------------------------------------


    POTLOK:  cpu time    0.0219: real time    0.0238
    SETDIJ:  cpu time    0.3912: real time    0.3920
atom =   1  type =  1  l = 3
 
 onsite density matrix
 
spin component  1
 
  0.0699  0.0000  0.0000  0.0000  0.0000  0.0000  0.0000
  0.0000  0.0699  0.0000  0.0000  0.0000  0.0000  0.0000
  0.0000  0.0000  0.0699  0.0000  0.0000  0.0000  0.0000
  0.0000  0.0000  0.0000  0.0699  0.0000 -0.0000  0.0000
  0.0000  0.0000  0.0000  0.0000  0.0699  0.0000  0.0000
  0.0000  0.0000  0.0000 -0.0000  0.0000  0.0699  0.0000
  0.0000  0.0000  0.0000  0.0000  0.0000  0.0000  0.0699
 
spin component  2
 
  0.0699  0.0000  0.0000  0.0000  0.0000  0.0000  0.0000
  0.0000  0.0699  0.0000  0.0000  0.0000  0.0000  0.0000
  0.0000  0.0000  0.0699  0.0000  0.0000  0.0000  0.0000
  0.0000  0.0000  0.0000  0.0699  0.0000 -0.0000  0.0000
  0.0000  0.0000  0.0000  0.0000  0.0699  0.0000  0.0000
  0.0000  0.0000  0.0000 -0.0000  0.0000  0.0699  0.0000
  0.0000  0.0000  0.0000  0.0000  0.0000  0.0000  0.0699
 
 occupancies and eigenvectors
 
  o =  0.0699  v =  0.0000  0.0000 -1.0000  0.0000  0.0000  0.0000  0.0000  0.0000  0.0000  0.0000  0.0000  0.0000  0.0000  0.0000      0.0000  0.0000  0.0000  0.0000  0.0000  0.0000  0.0000  0.0000  0.0000  0.0000  0.0000  0.0000  0.0000  0.0000
  o =  0.0699  v =  0.0000 -1.0000  0.0000  0.0000  0.0000  0.0000  0.0000  0.0000  0.0000  0.0000  0.0000  0.0000  0.0000  0.0000      0.0000  0.0000  0.0000  0.0000  0.0000  0.0000  0.0000  0.0000  0.0000  0.0000  0.0000  0.0000  0.0000  0.0000
  o =  0.0699  v =  0.0000  0.0000  0.0000  1.0000  0.0000  0.0000  0.0000  0.0000  0.0000  0.0000  0.0000  0.0000  0.0000  0.0000      0.0000  0.0000  0.0000  0.0000  0.0000  0.0000  0.0000  0.0000  0.0000  0.0000  0.0000  0.0000  0.0000  0.0000
  o =  0.0699  v =  0.0000  0.0000  0.0000  0.0000  0.0000  1.0000  0.0000  0.0000  0.0000  0.0000  0.0000  0.0000  0.0000  0.0000      0.0000  0.0000  0.0000  0.0000  0.0000  0.0000  0.0000  0.0000  0.0000  0.0000  0.0000  0.0000  0.0000  0.0000
  o =  0.0699  v =  0.0000  0.0000  0.0000  0.0000  1.0000  0.0000  0.0000  0.0000  0.0000  0.0000  0.0000  0.0000  0.0000  0.0000      0.0000  0.0000  0.0000  0.0000  0.0000  0.0000  0.0000  0.0000  0.0000  0.0000  0.0000  0.0000  0.0000  0.0000
  o =  0.0699  v =  0.0000  0.0000  0.0000  0.0000  0.0000  0.0000  0.0000  0.0000  0.0000 -1.0000  0.0000  0.0000  0.0000  0.0000      0.0000  0.0000  0.0000  0.0000  0.0000  0.0000  0.0000  0.0000  0.0000  0.0000  0.0000  0.0000  0.0000  0.0000
  o =  0.0699  v =  0.0000  0.0000  0.0000  0.0000  0.0000  0.0000  0.0000  0.0000 -1.0000  0.0000  0.0000  0.0000  0.0000  0.0000      0.0000  0.0000  0.0000  0.0000  0.0000  0.0000  0.0000  0.0000  0.0000  0.0000  0.0000  0.0000  0.0000  0.0000
  o =  0.0699  v =  0.0000  0.0000  0.0000  0.0000  0.0000  0.0000  0.0000  0.0000  0.0000  0.0000  1.0000  0.0000  0.0000  0.0000      0.0000  0.0000  0.0000  0.0000  0.0000  0.0000  0.0000  0.0000  0.0000  0.0000  0.0000  0.0000  0.0000  0.0000
  o =  0.0699  v =  0.0000  0.0000  0.0000  0.0000  0.0000  0.0000  0.0000  0.0000  0.0000  0.0000  0.0000  0.0000  1.0000  0.0000      0.0000  0.0000  0.0000  0.0000  0.0000  0.0000  0.0000  0.0000  0.0000  0.0000  0.0000  0.0000  0.0000  0.0000
  o =  0.0699  v =  0.0000  0.0000  0.0000  0.0000  0.0000  0.0000  0.0000  0.0000  0.0000  0.0000  0.0000  1.0000  0.0000  0.0000      0.0000  0.0000  0.0000  0.0000  0.0000  0.0000  0.0000  0.0000  0.0000  0.0000  0.0000  0.0000  0.0000  0.0000
  o =  0.0699  v =  0.0000  0.0000  0.0000  0.0000  0.0000  0.0000  0.0000  1.0000  0.0000  0.0000  0.0000  0.0000  0.0000  0.0000      0.0000  0.0000  0.0000  0.0000  0.0000  0.0000  0.0000  0.0000  0.0000  0.0000  0.0000  0.0000  0.0000  0.0000
  o =  0.0699  v =  1.0000  0.0000  0.0000  0.0000  0.0000  0.0000  0.0000  0.0000  0.0000  0.0000  0.0000  0.0000  0.0000  0.0000      0.0000  0.0000  0.0000  0.0000  0.0000  0.0000  0.0000  0.0000  0.0000  0.0000  0.0000  0.0000  0.0000  0.0000
  o =  0.0699  v =  0.0000  0.0000  0.0000  0.0000  0.0000  0.0000  1.0000  0.0000  0.0000  0.0000  0.0000  0.0000  0.0000  0.0000      0.0000  0.0000  0.0000  0.0000  0.0000  0.0000  0.0000  0.0000  0.0000  0.0000  0.0000  0.0000  0.0000  0.0000
  o =  0.0699  v =  0.0000  0.0000  0.0000  0.0000  0.0000  0.0000  0.0000  0.0000  0.0000  0.0000  0.0000  0.0000  0.0000  1.0000      0.0000  0.0000  0.0000  0.0000  0.0000  0.0000  0.0000  0.0000  0.0000  0.0000  0.0000  0.0000  0.0000  0.0000
     EDDAV:  cpu time    0.1403: real time    0.1412
       DOS:  cpu time    0.0006: real time    0.0006
    --------------------------------------------
      LOOP:  cpu time    0.5540: real time    0.5576

 eigenvalue-minimisations  :   392
 total energy-change (2. order) : 0.2594171E+03  (-0.7555774E+03)
 number of electron      24.0000000 magnetization 
 augmentation part       24.0000000 magnetization 

 Free energy of the ion-electron system (eV)
  ---------------------------------------------------
  alpha Z        PSCENC =        12.84742951
  Ewald energy   TEWEN  =      9254.51079495
  -Hartree energ DENC   =    -10827.67288786
  -exchange      EXHF   =         0.00000000
  -V(xc)+E(xc)   XCENC  =        59.91499667
  PAW double counting   =      1543.93901975    -1523.11966362
  entropy T*S    EENTRO =        -0.00000843
  eigenvalues    EBANDS =      -188.56996736
  atomic energy  EATOM  =      1927.56740593
  Solvation  Ediel_sol  =         0.00000000
  ---------------------------------------------------
  free energy    TOTEN  =       259.41711956 eV

  energy without entropy =      259.41712798  energy(sigma->0) =      259.41712377


--------------------------------------------------------------------------------------------------------




--------------------------------------- Iteration      1(   2)  ---------------------------------------


     EDDAV:  cpu time    0.1752: real time    0.1756
       DOS:  cpu time    0.0004: real time    0.0004
    --------------------------------------------
      LOOP:  cpu time    0.1756: real time    0.1759

 eigenvalue-minimisations  :   552
 total energy-change (2. order) :-0.2304902E+03  (-0.2181259E+03)
 number of electron      24.0000000 magnetization 
 augmentation part       24.0000000 magnetization 

 Free energy of the ion-electron system (eV)
  ---------------------------------------------------
  alpha Z        PSCENC =        12.84742951
  Ewald energy   TEWEN  =      9254.51079495
  -Hartree energ DENC   =    -10827.67288786
  -exchange      EXHF   =         0.00000000
  -V(xc)+E(xc)   XCENC  =        59.91499667
  PAW double counting   =      1543.93901975    -1523.11966362
  entropy T*S    EENTRO =        -0.00001058
  eigenvalues    EBANDS =      -419.06018695
  atomic energy  EATOM  =      1927.56740593
  Solvation  Ediel_sol  =         0.00000000
  ---------------------------------------------------
  free energy    TOTEN  =        28.92689781 eV

  energy without entropy =       28.92690839  energy(sigma->0) =       28.92690310


--------------------------------------------------------------------------------------------------------




--------------------------------------- Iteration      1(   3)  ---------------------------------------


     EDDAV:  cpu time    0.1325: real time    0.1328
       DOS:  cpu time    0.0001: real time    0.0001
    --------------------------------------------
      LOOP:  cpu time    0.1327: real time    0.1329

 eigenvalue-minimisations  :   400
 total energy-change (2. order) :-0.5689470E+02  (-0.5526395E+02)
 number of electron      24.0000000 magnetization 
 augmentation part       24.0000000 magnetization 

 Free energy of the ion-electron system (eV)
  ---------------------------------------------------
  alpha Z        PSCENC =        12.84742951
  Ewald energy   TEWEN  =      9254.51079495
  -Hartree energ DENC   =    -10827.67288786
  -exchange      EXHF   =         0.00000000
  -V(xc)+E(xc)   XCENC  =        59.91499667
  PAW double counting   =      1543.93901975    -1523.11966362
  entropy T*S    EENTRO =         0.00000000
  eigenvalues    EBANDS =      -475.95489826
  atomic energy  EATOM  =      1927.56740593
  Solvation  Ediel_sol  =         0.00000000
  ---------------------------------------------------
  free energy    TOTEN  =       -27.96780291 eV

  energy without entropy =      -27.96780291  energy(sigma->0) =      -27.96780291


--------------------------------------------------------------------------------------------------------




--------------------------------------- Iteration      1(   4)  ---------------------------------------


     EDDAV:  cpu time    0.1666: real time    0.1669
       DOS:  cpu time    0.0001: real time    0.0001
    --------------------------------------------
      LOOP:  cpu time    0.1667: real time    0.1671

 eigenvalue-minimisations  :   520
 total energy-change (2. order) :-0.3067350E+01  (-0.3066338E+01)
 number of electron      24.0000000 magnetization 
 augmentation part       24.0000000 magnetization 

 Free energy of the ion-electron system (eV)
  ---------------------------------------------------
  alpha Z        PSCENC =        12.84742951
  Ewald energy   TEWEN  =      9254.51079495
  -Hartree energ DENC   =    -10827.67288786
  -exchange      EXHF   =         0.00000000
  -V(xc)+E(xc)   XCENC  =        59.91499667
  PAW double counting   =      1543.93901975    -1523.11966362
  entropy T*S    EENTRO =         0.00000000
  eigenvalues    EBANDS =      -479.02224784
  atomic energy  EATOM  =      1927.56740593
  Solvation  Ediel_sol  =         0.00000000
  ---------------------------------------------------
  free energy    TOTEN  =       -31.03515249 eV

  energy without entropy =      -31.03515249  energy(sigma->0) =      -31.03515249


--------------------------------------------------------------------------------------------------------




--------------------------------------- Iteration      1(   5)  ---------------------------------------


     EDDAV:  cpu time    0.1681: real time    0.1685
       DOS:  cpu time    0.0001: real time    0.0001
    CHARGE:  cpu time    0.0416: real time    0.0417
    MIXING:  cpu time    0.0030: real time    0.0031
    --------------------------------------------
      LOOP:  cpu time    0.2129: real time    0.2135

 eigenvalue-minimisations  :   520
 total energy-change (2. order) :-0.1718194E+00  (-0.1716871E+00)
 number of electron      24.0000000 magnetization 
 augmentation part       -0.2083658 magnetization 

 Broyden mixing:
  rms(total) = 0.28254E+01    rms(broyden)= 0.28252E+01
  rms(prec ) = 0.28592E+01
  weight for this iteration     100.00

 Free energy of the ion-electron system (eV)
  ---------------------------------------------------
  alpha Z        PSCENC =        12.84742951
  Ewald energy   TEWEN  =      9254.51079495
  -Hartree energ DENC   =    -10827.67288786
  -exchange      EXHF   =         0.00000000
  -V(xc)+E(xc)   XCENC  =        59.91499667
  PAW double counting   =      1543.93901975    -1523.11966362
  entropy T*S    EENTRO =         0.00000000
  eigenvalues    EBANDS =      -479.19406722
  atomic energy  EATOM  =      1927.56740593
  Solvation  Ediel_sol  =         0.00000000
  ---------------------------------------------------
  free energy    TOTEN  =       -31.20697187 eV

  energy without entropy =      -31.20697187  energy(sigma->0) =      -31.20697187


--------------------------------------------------------------------------------------------------------




--------------------------------------- Iteration      1(   6)  ---------------------------------------


    POTLOK:  cpu time    0.0177: real time    0.0178
    SETDIJ:  cpu time    0.4044: real time    0.4052
atom =   1  type =  1  l = 3
 
 onsite density matrix
 
spin component  1
 
  0.0577 -0.0000 -0.0000  0.0080  0.0000 -0.0000  0.0000
 -0.0000  0.0491 -0.0000 -0.0000  0.0007  0.0000 -0.0000
 -0.0000 -0.0000  0.0451 -0.0000 -0.0000  0.0007  0.0000
  0.0080 -0.0000 -0.0000  0.0475 -0.0000 -0.0000  0.0000
  0.0000  0.0007 -0.0000 -0.0000  0.0451  0.0000 -0.0000
 -0.0000  0.0000  0.0007 -0.0000  0.0000  0.0491  0.0000
  0.0000 -0.0000  0.0000  0.0000 -0.0000  0.0000  0.0473
 
spin component  2
 
  0.0577 -0.0000 -0.0000  0.0080  0.0000 -0.0000  0.0000
 -0.0000  0.0491 -0.0000 -0.0000  0.0007  0.0000 -0.0000
 -0.0000 -0.0000  0.0451 -0.0000 -0.0000  0.0007  0.0000
  0.0080 -0.0000 -0.0000  0.0475 -0.0000 -0.0000  0.0000
  0.0000  0.0007 -0.0000 -0.0000  0.0451  0.0000 -0.0000
 -0.0000  0.0000  0.0007 -0.0000  0.0000  0.0491  0.0000
  0.0000 -0.0000  0.0000  0.0000 -0.0000  0.0000  0.0473
 
 occupancies and eigenvectors
 
  o =  0.0431  v =  0.4797 -0.0000  0.0000 -0.8774 -0.0000 -0.0000  0.0000  0.0000  0.0000  0.0000  0.0000  0.0000  0.0000  0.0000      0.0000  0.0000  0.0000  0.0000  0.0000  0.0000  0.0000  0.0000  0.0000  0.0000  0.0000  0.0000  0.0000  0.0000
  o =  0.0431  v =  0.0000  0.0000  0.0000  0.0000  0.0000  0.0000  0.0000  0.4797 -0.0000  0.0000 -0.8774 -0.0000 -0.0000  0.0000      0.0000  0.0000  0.0000  0.0000  0.0000  0.0000  0.0000  0.0000  0.0000  0.0000  0.0000  0.0000  0.0000  0.0000
  o =  0.0449  v =  0.0000  0.0007 -0.9866 -0.0000 -0.0040  0.1628 -0.0000  0.0000  0.0000  0.0000  0.0000  0.0000  0.0000  0.0000      0.0000  0.0000  0.0000  0.0000  0.0000  0.0000  0.0000  0.0000  0.0000  0.0000  0.0000  0.0000  0.0000  0.0000
  o =  0.0449  v =  0.0000  0.0000  0.0000  0.0000  0.0000  0.0000  0.0000  0.0000  0.0007 -0.9866 -0.0000 -0.0040  0.1628 -0.0000      0.0000  0.0000  0.0000  0.0000  0.0000  0.0000  0.0000  0.0000  0.0000  0.0000  0.0000  0.0000  0.0000  0.0000
  o =  0.0449  v =  0.0000 -0.1628 -0.0040 -0.0000  0.9866  0.0007  0.0000  0.0000  0.0000  0.0000  0.0000  0.0000  0.0000  0.0000      0.0000  0.0000  0.0000  0.0000  0.0000  0.0000  0.0000  0.0000  0.0000  0.0000  0.0000  0.0000  0.0000  0.0000
  o =  0.0449  v =  0.0000  0.0000  0.0000  0.0000  0.0000  0.0000  0.0000  0.0000 -0.1628 -0.0040 -0.0000  0.9866  0.0007  0.0000      0.0000  0.0000  0.0000  0.0000  0.0000  0.0000  0.0000  0.0000  0.0000  0.0000  0.0000  0.0000  0.0000  0.0000
  o =  0.0473  v =  0.0000  0.0000  0.0000  0.0000  0.0000  0.0000  0.0000 -0.0000  0.0000 -0.0000  0.0000 -0.0000 -0.0000  1.0000      0.0000  0.0000  0.0000  0.0000  0.0000  0.0000  0.0000  0.0000  0.0000  0.0000  0.0000  0.0000  0.0000  0.0000
  o =  0.0473  v = -0.0000  0.0000 -0.0000  0.0000 -0.0000 -0.0000  1.0000  0.0000  0.0000  0.0000  0.0000  0.0000  0.0000  0.0000      0.0000  0.0000  0.0000  0.0000  0.0000  0.0000  0.0000  0.0000  0.0000  0.0000  0.0000  0.0000  0.0000  0.0000
  o =  0.0492  v = -0.0000  0.2981 -0.1552  0.0000  0.0492 -0.9405 -0.0000  0.0000  0.0000  0.0000  0.0000  0.0000  0.0000  0.0000      0.0000  0.0000  0.0000  0.0000  0.0000  0.0000  0.0000  0.0000  0.0000  0.0000  0.0000  0.0000  0.0000  0.0000
  o =  0.0492  v =  0.0000  0.0000  0.0000  0.0000  0.0000  0.0000  0.0000 -0.0000  0.2981 -0.1552  0.0000  0.0492 -0.9405 -0.0000      0.0000  0.0000  0.0000  0.0000  0.0000  0.0000  0.0000  0.0000  0.0000  0.0000  0.0000  0.0000  0.0000  0.0000
  o =  0.0492  v =  0.0000  0.9405  0.0492 -0.0000  0.1552  0.2981 -0.0000  0.0000  0.0000  0.0000  0.0000  0.0000  0.0000  0.0000      0.0000  0.0000  0.0000  0.0000  0.0000  0.0000  0.0000  0.0000  0.0000  0.0000  0.0000  0.0000  0.0000  0.0000
  o =  0.0492  v =  0.0000  0.0000  0.0000  0.0000  0.0000  0.0000  0.0000  0.0000  0.9405  0.0492 -0.0000  0.1552  0.2981 -0.0000      0.0000  0.0000  0.0000  0.0000  0.0000  0.0000  0.0000  0.0000  0.0000  0.0000  0.0000  0.0000  0.0000  0.0000
  o =  0.0621  v =  0.0000  0.0000  0.0000  0.0000  0.0000  0.0000  0.0000 -0.8774  0.0000  0.0000 -0.4797 -0.0000  0.0000 -0.0000      0.0000  0.0000  0.0000  0.0000  0.0000  0.0000  0.0000  0.0000  0.0000  0.0000  0.0000  0.0000  0.0000  0.0000
  o =  0.0621  v = -0.8774  0.0000  0.0000 -0.4797 -0.0000  0.0000 -0.0000  0.0000  0.0000  0.0000  0.0000  0.0000  0.0000  0.0000      0.0000  0.0000  0.0000  0.0000  0.0000  0.0000  0.0000  0.0000  0.0000  0.0000  0.0000  0.0000  0.0000  0.0000
     EDDAV:  cpu time    0.1563: real time    0.1567
       DOS:  cpu time    0.0001: real time    0.0001
    CHARGE:  cpu time    0.0410: real time    0.0411
    MIXING:  cpu time    0.0012: real time    0.0012
    --------------------------------------------
      LOOP:  cpu time    0.6209: real time    0.6221

 eigenvalue-minimisations  :   464
 total energy-change (2. order) : 0.6270320E+01  (-0.7890906E+01)
 number of electron      24.0000000 magnetization 
 augmentation part        0.4415489 magnetization 

 Broyden mixing:
  rms(total) = 0.13734E+01    rms(broyden)= 0.13724E+01
  rms(prec ) = 0.14245E+01
  weight for this iteration     100.00

 eigenvalues of (default mixing * dielectric matrix)
  average eigenvalue GAMMA=   0.7513
  0.7513

 Free energy of the ion-electron system (eV)
  ---------------------------------------------------
  alpha Z        PSCENC =        12.84742951
  Ewald energy   TEWEN  =      9254.51079495
  -Hartree energ DENC   =    -10875.47699348
  -exchange      EXHF   =         0.00000000
  -V(xc)+E(xc)   XCENC  =        62.89648301
  PAW double counting   =      1681.69237341    -1660.06878587
  entropy T*S    EENTRO =         0.00000000
  eigenvalues    EBANDS =      -428.90535919
  atomic energy  EATOM  =      1927.56740593
  Solvation  Ediel_sol  =         0.00000000
  ---------------------------------------------------
  free energy    TOTEN  =       -24.93665172 eV

  energy without entropy =      -24.93665172  energy(sigma->0) =      -24.93665172


--------------------------------------------------------------------------------------------------------




--------------------------------------- Iteration      1(   7)  ---------------------------------------


    POTLOK:  cpu time    0.0180: real time    0.0180
    SETDIJ:  cpu time    0.4141: real time    0.4150
atom =   1  type =  1  l = 3
 
 onsite density matrix
 
spin component  1
 
  0.1266  0.0000 -0.0000  0.0409  0.0000 -0.0000 -0.0000
  0.0000  0.0884  0.0000  0.0000  0.0037 -0.0000 -0.0000
 -0.0000  0.0000  0.0580 -0.0000 -0.0000  0.0037  0.0000
  0.0409  0.0000 -0.0000  0.0591  0.0000 -0.0000  0.0000
  0.0000  0.0037 -0.0000  0.0000  0.0580  0.0000 -0.0000
 -0.0000 -0.0000  0.0037 -0.0000  0.0000  0.0884  0.0000
 -0.0000 -0.0000  0.0000  0.0000 -0.0000  0.0000  0.0613
 
spin component  2
 
  0.1266  0.0000 -0.0000  0.0409  0.0000 -0.0000 -0.0000
  0.0000  0.0884  0.0000  0.0000  0.0037 -0.0000 -0.0000
 -0.0000  0.0000  0.0580 -0.0000 -0.0000  0.0037  0.0000
  0.0409  0.0000 -0.0000  0.0591  0.0000 -0.0000  0.0000
  0.0000  0.0037 -0.0000  0.0000  0.0580  0.0000 -0.0000
 -0.0000 -0.0000  0.0037 -0.0000  0.0000  0.0884  0.0000
 -0.0000 -0.0000  0.0000  0.0000 -0.0000  0.0000  0.0613
 
 occupancies and eigenvectors
 
  o =  0.0398  v = -0.4264  0.0000 -0.0000  0.9045  0.0000  0.0000 -0.0000  0.0000  0.0000  0.0000  0.0000  0.0000  0.0000  0.0000      0.0000  0.0000  0.0000  0.0000  0.0000  0.0000  0.0000  0.0000  0.0000  0.0000  0.0000  0.0000  0.0000  0.0000
  o =  0.0398  v =  0.0000  0.0000  0.0000  0.0000  0.0000  0.0000  0.0000 -0.4264  0.0000 -0.0000  0.9045  0.0000  0.0000 -0.0000      0.0000  0.0000  0.0000  0.0000  0.0000  0.0000  0.0000  0.0000  0.0000  0.0000  0.0000  0.0000  0.0000  0.0000
  o =  0.0576  v =  0.0000 -0.0000  0.9930  0.0000  0.0002 -0.1181  0.0000  0.0000  0.0000  0.0000  0.0000  0.0000  0.0000  0.0000      0.0000  0.0000  0.0000  0.0000  0.0000  0.0000  0.0000  0.0000  0.0000  0.0000  0.0000  0.0000  0.0000  0.0000
  o =  0.0576  v =  0.0000  0.0000  0.0000  0.0000  0.0000  0.0000  0.0000  0.0000 -0.0000  0.9930  0.0000  0.0002 -0.1181  0.0000      0.0000  0.0000  0.0000  0.0000  0.0000  0.0000  0.0000  0.0000  0.0000  0.0000  0.0000  0.0000  0.0000  0.0000
  o =  0.0576  v =  0.0000  0.1181  0.0002 -0.0000 -0.9930 -0.0000 -0.0000  0.0000  0.0000  0.0000  0.0000  0.0000  0.0000  0.0000      0.0000  0.0000  0.0000  0.0000  0.0000  0.0000  0.0000  0.0000  0.0000  0.0000  0.0000  0.0000  0.0000  0.0000
  o =  0.0576  v =  0.0000  0.0000  0.0000  0.0000  0.0000  0.0000  0.0000  0.0000  0.1181  0.0002 -0.0000 -0.9930 -0.0000 -0.0000      0.0000  0.0000  0.0000  0.0000  0.0000  0.0000  0.0000  0.0000  0.0000  0.0000  0.0000  0.0000  0.0000  0.0000
  o =  0.0613  v =  0.0000  0.0000  0.0000  0.0000  0.0000  0.0000  0.0000  0.0000 -0.0000 -0.0000 -0.0000  0.0000  0.0000 -1.0000      0.0000  0.0000  0.0000  0.0000  0.0000  0.0000  0.0000  0.0000  0.0000  0.0000  0.0000  0.0000  0.0000  0.0000
  o =  0.0613  v =  0.0000 -0.0000 -0.0000 -0.0000  0.0000  0.0000 -1.0000  0.0000  0.0000  0.0000  0.0000  0.0000  0.0000  0.0000      0.0000  0.0000  0.0000  0.0000  0.0000  0.0000  0.0000  0.0000  0.0000  0.0000  0.0000  0.0000  0.0000  0.0000
  o =  0.0888  v =  0.0000  0.0000  0.0000  0.0000  0.0000  0.0000  0.0000  0.0000  0.9930  0.0007 -0.0000  0.1181  0.0056 -0.0000      0.0000  0.0000  0.0000  0.0000  0.0000  0.0000  0.0000  0.0000  0.0000  0.0000  0.0000  0.0000  0.0000  0.0000
  o =  0.0888  v =  0.0000  0.9930  0.0007 -0.0000  0.1181  0.0056 -0.0000  0.0000  0.0000  0.0000  0.0000  0.0000  0.0000  0.0000      0.0000  0.0000  0.0000  0.0000  0.0000  0.0000  0.0000  0.0000  0.0000  0.0000  0.0000  0.0000  0.0000  0.0000
  o =  0.0888  v = -0.0000  0.0056 -0.1181  0.0000  0.0007 -0.9930 -0.0000  0.0000  0.0000  0.0000  0.0000  0.0000  0.0000  0.0000      0.0000  0.0000  0.0000  0.0000  0.0000  0.0000  0.0000  0.0000  0.0000  0.0000  0.0000  0.0000  0.0000  0.0000
  o =  0.0888  v =  0.0000  0.0000  0.0000  0.0000  0.0000  0.0000  0.0000 -0.0000  0.0056 -0.1181  0.0000  0.0007 -0.9930 -0.0000      0.0000  0.0000  0.0000  0.0000  0.0000  0.0000  0.0000  0.0000  0.0000  0.0000  0.0000  0.0000  0.0000  0.0000
  o =  0.1459  v = -0.9045  0.0000  0.0000 -0.4264 -0.0000  0.0000  0.0000  0.0000  0.0000  0.0000  0.0000  0.0000  0.0000  0.0000      0.0000  0.0000  0.0000  0.0000  0.0000  0.0000  0.0000  0.0000  0.0000  0.0000  0.0000  0.0000  0.0000  0.0000
  o =  0.1459  v =  0.0000  0.0000  0.0000  0.0000  0.0000  0.0000  0.0000 -0.9045  0.0000  0.0000 -0.4264 -0.0000  0.0000  0.0000      0.0000  0.0000  0.0000  0.0000  0.0000  0.0000  0.0000  0.0000  0.0000  0.0000  0.0000  0.0000  0.0000  0.0000
     EDDAV:  cpu time    0.1583: real time    0.1586
       DOS:  cpu time    0.0002: real time    0.0002
    CHARGE:  cpu time    0.0409: real time    0.0410
    MIXING:  cpu time    0.0017: real time    0.0017
    --------------------------------------------
      LOOP:  cpu time    0.6333: real time    0.6346

 eigenvalue-minimisations  :   480
 total energy-change (2. order) :-0.7433573E+00  (-0.9458908E+01)
 number of electron      24.0000000 magnetization 
 augmentation part       -0.4907326 magnetization 

 Broyden mixing:
  rms(total) = 0.17765E+01    rms(broyden)= 0.17763E+01
  rms(prec ) = 0.17918E+01
  weight for this iteration     100.00

 eigenvalues of (default mixing * dielectric matrix)
  average eigenvalue GAMMA=   1.1015
  1.7837  0.4194

 Free energy of the ion-electron system (eV)
  ---------------------------------------------------
  alpha Z        PSCENC =        12.84742951
  Ewald energy   TEWEN  =      9254.51079495
  -Hartree energ DENC   =    -10880.04182543
  -exchange      EXHF   =         0.00000000
  -V(xc)+E(xc)   XCENC  =        61.82609092
  PAW double counting   =      1735.71678638    -1715.67771256
  entropy T*S    EENTRO =         0.00000000
  eigenvalues    EBANDS =      -422.42897876
  atomic energy  EATOM  =      1927.56740593
  Solvation  Ediel_sol  =         0.00000000
  ---------------------------------------------------
  free energy    TOTEN  =       -25.68000906 eV

  energy without entropy =      -25.68000906  energy(sigma->0) =      -25.68000906


--------------------------------------------------------------------------------------------------------




--------------------------------------- Iteration      1(   8)  ---------------------------------------


    POTLOK:  cpu time    0.0172: real time    0.0173
    SETDIJ:  cpu time    0.4058: real time    0.4062
atom =   1  type =  1  l = 3
 
 onsite density matrix
 
spin component  1
 
  0.1383  0.0000 -0.0000  0.0556  0.0000 -0.0000 -0.0000
  0.0000  0.0863  0.0000  0.0000  0.0048  0.0000 -0.0000
 -0.0000  0.0000  0.0464 -0.0000  0.0000  0.0048 -0.0000
  0.0556  0.0000 -0.0000  0.0496  0.0000 -0.0000  0.0000
  0.0000  0.0048  0.0000  0.0000  0.0464  0.0000 -0.0000
 -0.0000  0.0000  0.0048 -0.0000  0.0000  0.0863  0.0000
 -0.0000 -0.0000 -0.0000  0.0000 -0.0000  0.0000  0.0526
 
spin component  2
 
  0.1383  0.0000 -0.0000  0.0556  0.0000 -0.0000 -0.0000
  0.0000  0.0863  0.0000  0.0000  0.0048  0.0000 -0.0000
 -0.0000  0.0000  0.0464 -0.0000  0.0000  0.0048 -0.0000
  0.0556  0.0000 -0.0000  0.0496  0.0000 -0.0000  0.0000
  0.0000  0.0048  0.0000  0.0000  0.0464  0.0000 -0.0000
 -0.0000  0.0000  0.0048 -0.0000  0.0000  0.0863  0.0000
 -0.0000 -0.0000 -0.0000  0.0000 -0.0000  0.0000  0.0526
 
 occupancies and eigenvectors
 
  o =  0.0229  v = -0.4337  0.0000 -0.0000  0.9010  0.0000  0.0000 -0.0000  0.0000  0.0000  0.0000  0.0000  0.0000  0.0000  0.0000      0.0000  0.0000  0.0000  0.0000  0.0000  0.0000  0.0000  0.0000  0.0000  0.0000  0.0000  0.0000  0.0000  0.0000
  o =  0.0229  v =  0.0000  0.0000  0.0000  0.0000  0.0000  0.0000  0.0000 -0.4337  0.0000 -0.0000  0.9010  0.0000  0.0000 -0.0000      0.0000  0.0000  0.0000  0.0000  0.0000  0.0000  0.0000  0.0000  0.0000  0.0000  0.0000  0.0000  0.0000  0.0000
  o =  0.0458  v =  0.0000  0.0000  0.9930  0.0000 -0.0000 -0.1185  0.0000  0.0000  0.0000  0.0000  0.0000  0.0000  0.0000  0.0000      0.0000  0.0000  0.0000  0.0000  0.0000  0.0000  0.0000  0.0000  0.0000  0.0000  0.0000  0.0000  0.0000  0.0000
  o =  0.0458  v =  0.0000  0.0000  0.0000  0.0000  0.0000  0.0000  0.0000  0.0000  0.0000  0.9930  0.0000 -0.0000 -0.1185  0.0000      0.0000  0.0000  0.0000  0.0000  0.0000  0.0000  0.0000  0.0000  0.0000  0.0000  0.0000  0.0000  0.0000  0.0000
  o =  0.0458  v =  0.0000 -0.1185  0.0000 -0.0000  0.9930 -0.0000  0.0000  0.0000  0.0000  0.0000  0.0000  0.0000  0.0000  0.0000      0.0000  0.0000  0.0000  0.0000  0.0000  0.0000  0.0000  0.0000  0.0000  0.0000  0.0000  0.0000  0.0000  0.0000
  o =  0.0458  v =  0.0000  0.0000  0.0000  0.0000  0.0000  0.0000  0.0000  0.0000 -0.1185  0.0000 -0.0000  0.9930 -0.0000  0.0000      0.0000  0.0000  0.0000  0.0000  0.0000  0.0000  0.0000  0.0000  0.0000  0.0000  0.0000  0.0000  0.0000  0.0000
  o =  0.0526  v =  0.0000  0.0000  0.0000  0.0000  0.0000  0.0000  0.0000  0.0000  0.0000 -0.0000  0.0000 -0.0000 -0.0000  1.0000      0.0000  0.0000  0.0000  0.0000  0.0000  0.0000  0.0000  0.0000  0.0000  0.0000  0.0000  0.0000  0.0000  0.0000
  o =  0.0526  v =  0.0000  0.0000 -0.0000  0.0000 -0.0000 -0.0000  1.0000  0.0000  0.0000  0.0000  0.0000  0.0000  0.0000  0.0000      0.0000  0.0000  0.0000  0.0000  0.0000  0.0000  0.0000  0.0000  0.0000  0.0000  0.0000  0.0000  0.0000  0.0000
  o =  0.0869  v =  0.0000  0.0000  0.0000  0.0000  0.0000  0.0000  0.0000 -0.0000 -0.9929 -0.0011  0.0000 -0.1184 -0.0090  0.0000      0.0000  0.0000  0.0000  0.0000  0.0000  0.0000  0.0000  0.0000  0.0000  0.0000  0.0000  0.0000  0.0000  0.0000
  o =  0.0869  v = -0.0000 -0.9929 -0.0011  0.0000 -0.1184 -0.0090  0.0000  0.0000  0.0000  0.0000  0.0000  0.0000  0.0000  0.0000      0.0000  0.0000  0.0000  0.0000  0.0000  0.0000  0.0000  0.0000  0.0000  0.0000  0.0000  0.0000  0.0000  0.0000
  o =  0.0869  v =  0.0000  0.0000  0.0000  0.0000  0.0000  0.0000  0.0000  0.0000 -0.0090  0.1184 -0.0000 -0.0011  0.9929  0.0000      0.0000  0.0000  0.0000  0.0000  0.0000  0.0000  0.0000  0.0000  0.0000  0.0000  0.0000  0.0000  0.0000  0.0000
  o =  0.0869  v =  0.0000 -0.0090  0.1184 -0.0000 -0.0011  0.9929  0.0000  0.0000  0.0000  0.0000  0.0000  0.0000  0.0000  0.0000      0.0000  0.0000  0.0000  0.0000  0.0000  0.0000  0.0000  0.0000  0.0000  0.0000  0.0000  0.0000  0.0000  0.0000
  o =  0.1650  v = -0.9010 -0.0000  0.0000 -0.4337 -0.0000  0.0000  0.0000  0.0000  0.0000  0.0000  0.0000  0.0000  0.0000  0.0000      0.0000  0.0000  0.0000  0.0000  0.0000  0.0000  0.0000  0.0000  0.0000  0.0000  0.0000  0.0000  0.0000  0.0000
  o =  0.1650  v =  0.0000  0.0000  0.0000  0.0000  0.0000  0.0000  0.0000 -0.9010 -0.0000  0.0000 -0.4337 -0.0000  0.0000  0.0000      0.0000  0.0000  0.0000  0.0000  0.0000  0.0000  0.0000  0.0000  0.0000  0.0000  0.0000  0.0000  0.0000  0.0000
     EDDAV:  cpu time    0.1508: real time    0.1511
       DOS:  cpu time    0.0002: real time    0.0002
    CHARGE:  cpu time    0.0414: real time    0.0415
    MIXING:  cpu time    0.0010: real time    0.0010
    --------------------------------------------
      LOOP:  cpu time    0.6164: real time    0.6172

 eigenvalue-minimisations  :   448
 total energy-change (2. order) : 0.1447857E+01  (-0.2942332E+00)
 number of electron      24.0000000 magnetization 
 augmentation part       -0.4660823 magnetization 

 Broyden mixing:
  rms(total) = 0.96853E+00    rms(broyden)= 0.96852E+00
  rms(prec ) = 0.98345E+00
  weight for this iteration     100.00

 eigenvalues of (default mixing * dielectric matrix)
  average eigenvalue GAMMA=   1.2837
  0.5015  0.9660  2.3836

 Free energy of the ion-electron system (eV)
  ---------------------------------------------------
  alpha Z        PSCENC =        12.84742951
  Ewald energy   TEWEN  =      9254.51079495
  -Hartree energ DENC   =    -10899.01744853
  -exchange      EXHF   =         0.00000000
  -V(xc)+E(xc)   XCENC  =        62.34952574
  PAW double counting   =      1828.30089037    -1807.57014377
  entropy T*S    EENTRO =         0.00000000
  eigenvalues    EBANDS =      -403.22060672
  atomic energy  EATOM  =      1927.56740593
  Solvation  Ediel_sol  =         0.00000000
  ---------------------------------------------------
  free energy    TOTEN  =       -24.23215251 eV

  energy without entropy =      -24.23215251  energy(sigma->0) =      -24.23215251


--------------------------------------------------------------------------------------------------------




--------------------------------------- Iteration      1(   9)  ---------------------------------------


    POTLOK:  cpu time    0.0166: real time    0.0167
    SETDIJ:  cpu time    0.3995: real time    0.4002
atom =   1  type =  1  l = 3
 
 onsite density matrix
 
spin component  1
 
  0.1327  0.0000 -0.0000  0.0600 -0.0000 -0.0000 -0.0000
  0.0000  0.0757  0.0000 -0.0000  0.0050 -0.0000 -0.0000
 -0.0000  0.0000  0.0361 -0.0000 -0.0000  0.0050 -0.0000
  0.0600 -0.0000 -0.0000  0.0435 -0.0000 -0.0000  0.0000
 -0.0000  0.0050 -0.0000 -0.0000  0.0361 -0.0000 -0.0000
 -0.0000 -0.0000  0.0050 -0.0000 -0.0000  0.0757  0.0000
 -0.0000 -0.0000 -0.0000  0.0000 -0.0000  0.0000  0.0432
 
spin component  2
 
  0.1327  0.0000 -0.0000  0.0600 -0.0000 -0.0000 -0.0000
  0.0000  0.0757  0.0000 -0.0000  0.0050 -0.0000 -0.0000
 -0.0000  0.0000  0.0361 -0.0000 -0.0000  0.0050 -0.0000
  0.0600 -0.0000 -0.0000  0.0435 -0.0000 -0.0000  0.0000
 -0.0000  0.0050 -0.0000 -0.0000  0.0361 -0.0000 -0.0000
 -0.0000 -0.0000  0.0050 -0.0000 -0.0000  0.0757  0.0000
 -0.0000 -0.0000 -0.0000  0.0000 -0.0000  0.0000  0.0432
 
 occupancies and eigenvectors
 
  o =  0.0134  v = -0.4491  0.0000 -0.0000  0.8935 -0.0000  0.0000 -0.0000  0.0000  0.0000  0.0000  0.0000  0.0000  0.0000  0.0000      0.0000  0.0000  0.0000  0.0000  0.0000  0.0000  0.0000  0.0000  0.0000  0.0000  0.0000  0.0000  0.0000  0.0000
  o =  0.0134  v =  0.0000  0.0000  0.0000  0.0000  0.0000  0.0000  0.0000 -0.4491  0.0000 -0.0000  0.8935 -0.0000  0.0000 -0.0000      0.0000  0.0000  0.0000  0.0000  0.0000  0.0000  0.0000  0.0000  0.0000  0.0000  0.0000  0.0000  0.0000  0.0000
  o =  0.0355  v = -0.0000  0.0000 -0.9925 -0.0000 -0.0002  0.1221 -0.0000  0.0000  0.0000  0.0000  0.0000  0.0000  0.0000  0.0000      0.0000  0.0000  0.0000  0.0000  0.0000  0.0000  0.0000  0.0000  0.0000  0.0000  0.0000  0.0000  0.0000  0.0000
  o =  0.0355  v =  0.0000  0.0000  0.0000  0.0000  0.0000  0.0000  0.0000 -0.0000  0.0000 -0.9925 -0.0000 -0.0002  0.1221 -0.0000      0.0000  0.0000  0.0000  0.0000  0.0000  0.0000  0.0000  0.0000  0.0000  0.0000  0.0000  0.0000  0.0000  0.0000
  o =  0.0355  v = -0.0000 -0.1221 -0.0002  0.0000  0.9925  0.0000  0.0000  0.0000  0.0000  0.0000  0.0000  0.0000  0.0000  0.0000      0.0000  0.0000  0.0000  0.0000  0.0000  0.0000  0.0000  0.0000  0.0000  0.0000  0.0000  0.0000  0.0000  0.0000
  o =  0.0355  v =  0.0000  0.0000  0.0000  0.0000  0.0000  0.0000  0.0000 -0.0000 -0.1221 -0.0002  0.0000  0.9925  0.0000  0.0000      0.0000  0.0000  0.0000  0.0000  0.0000  0.0000  0.0000  0.0000  0.0000  0.0000  0.0000  0.0000  0.0000  0.0000
  o =  0.0432  v =  0.0000  0.0000  0.0000  0.0000  0.0000  0.0000  0.0000  0.0000 -0.0000  0.0000 -0.0000  0.0000  0.0000 -1.0000      0.0000  0.0000  0.0000  0.0000  0.0000  0.0000  0.0000  0.0000  0.0000  0.0000  0.0000  0.0000  0.0000  0.0000
  o =  0.0432  v =  0.0000 -0.0000  0.0000 -0.0000  0.0000  0.0000 -1.0000  0.0000  0.0000  0.0000  0.0000  0.0000  0.0000  0.0000      0.0000  0.0000  0.0000  0.0000  0.0000  0.0000  0.0000  0.0000  0.0000  0.0000  0.0000  0.0000  0.0000  0.0000
  o =  0.0763  v =  0.0000  0.0002  0.1221 -0.0000  0.0000  0.9925  0.0000  0.0000  0.0000  0.0000  0.0000  0.0000  0.0000  0.0000      0.0000  0.0000  0.0000  0.0000  0.0000  0.0000  0.0000  0.0000  0.0000  0.0000  0.0000  0.0000  0.0000  0.0000
  o =  0.0763  v =  0.0000  0.0000  0.0000  0.0000  0.0000  0.0000  0.0000  0.0000  0.0002  0.1221 -0.0000  0.0000  0.9925  0.0000      0.0000  0.0000  0.0000  0.0000  0.0000  0.0000  0.0000  0.0000  0.0000  0.0000  0.0000  0.0000  0.0000  0.0000
  o =  0.0763  v =  0.0000 -0.9925  0.0000  0.0000 -0.1221  0.0002  0.0000  0.0000  0.0000  0.0000  0.0000  0.0000  0.0000  0.0000      0.0000  0.0000  0.0000  0.0000  0.0000  0.0000  0.0000  0.0000  0.0000  0.0000  0.0000  0.0000  0.0000  0.0000
  o =  0.0763  v =  0.0000  0.0000  0.0000  0.0000  0.0000  0.0000  0.0000  0.0000 -0.9925  0.0000  0.0000 -0.1221  0.0002  0.0000      0.0000  0.0000  0.0000  0.0000  0.0000  0.0000  0.0000  0.0000  0.0000  0.0000  0.0000  0.0000  0.0000  0.0000
  o =  0.1628  v =  0.0000  0.0000  0.0000  0.0000  0.0000  0.0000  0.0000 -0.8935 -0.0000  0.0000 -0.4491  0.0000  0.0000  0.0000      0.0000  0.0000  0.0000  0.0000  0.0000  0.0000  0.0000  0.0000  0.0000  0.0000  0.0000  0.0000  0.0000  0.0000
  o =  0.1628  v = -0.8935 -0.0000  0.0000 -0.4491  0.0000  0.0000  0.0000  0.0000  0.0000  0.0000  0.0000  0.0000  0.0000  0.0000      0.0000  0.0000  0.0000  0.0000  0.0000  0.0000  0.0000  0.0000  0.0000  0.0000  0.0000  0.0000  0.0000  0.0000
     EDDAV:  cpu time    0.1660: real time    0.1664
       DOS:  cpu time    0.0002: real time    0.0002
    CHARGE:  cpu time    0.0410: real time    0.0411
    MIXING:  cpu time    0.0012: real time    0.0012
    --------------------------------------------
      LOOP:  cpu time    0.6245: real time    0.6257

 eigenvalue-minimisations  :   504
 total energy-change (2. order) : 0.9176073E+00  (-0.6699778E+00)
 number of electron      24.0000000 magnetization 
 augmentation part       -0.4054961 magnetization 

 Broyden mixing:
  rms(total) = 0.15544E+00    rms(broyden)= 0.15496E+00
  rms(prec ) = 0.15834E+00
  weight for this iteration     100.00

 eigenvalues of (default mixing * dielectric matrix)
  average eigenvalue GAMMA=   1.0759
  1.9870  1.3034  0.5067  0.5067

 Free energy of the ion-electron system (eV)
  ---------------------------------------------------
  alpha Z        PSCENC =        12.84742951
  Ewald energy   TEWEN  =      9254.51079495
  -Hartree energ DENC   =    -10915.15006447
  -exchange      EXHF   =         0.00000000
  -V(xc)+E(xc)   XCENC  =        63.00490396
  PAW double counting   =      1861.64002250    -1840.04842181
  entropy T*S    EENTRO =         0.00000000
  eigenvalues    EBANDS =      -387.68661583
  atomic energy  EATOM  =      1927.56740593
  Solvation  Ediel_sol  =         0.00000000
  ---------------------------------------------------
  free energy    TOTEN  =       -23.31454526 eV

  energy without entropy =      -23.31454526  energy(sigma->0) =      -23.31454526


--------------------------------------------------------------------------------------------------------




--------------------------------------- Iteration      1(  10)  ---------------------------------------


    POTLOK:  cpu time    0.0171: real time    0.0171
    SETDIJ:  cpu time    0.4166: real time    0.4174
atom =   1  type =  1  l = 3
 
 onsite density matrix
 
spin component  1
 
  0.1296  0.0000 -0.0000  0.0602 -0.0000 -0.0000 -0.0000
  0.0000  0.0725  0.0000  0.0000  0.0048 -0.0000 -0.0000
 -0.0000  0.0000  0.0347 -0.0000 -0.0000  0.0048 -0.0000
  0.0602  0.0000 -0.0000  0.0453  0.0000 -0.0000  0.0000
 -0.0000  0.0048 -0.0000  0.0000  0.0347 -0.0000 -0.0000
 -0.0000 -0.0000  0.0048 -0.0000 -0.0000  0.0725  0.0000
 -0.0000 -0.0000 -0.0000  0.0000 -0.0000  0.0000  0.0421
 
spin component  2
 
  0.1296  0.0000 -0.0000  0.0602 -0.0000 -0.0000 -0.0000
  0.0000  0.0725  0.0000  0.0000  0.0048 -0.0000 -0.0000
 -0.0000  0.0000  0.0347 -0.0000 -0.0000  0.0048 -0.0000
  0.0602  0.0000 -0.0000  0.0453  0.0000 -0.0000  0.0000
 -0.0000  0.0048 -0.0000  0.0000  0.0347 -0.0000 -0.0000
 -0.0000 -0.0000  0.0048 -0.0000 -0.0000  0.0725  0.0000
 -0.0000 -0.0000 -0.0000  0.0000 -0.0000  0.0000  0.0421
 
 occupancies and eigenvectors
 
  o =  0.0140  v = -0.4620  0.0000 -0.0000  0.8869 -0.0000  0.0000 -0.0000  0.0000  0.0000  0.0000  0.0000  0.0000  0.0000  0.0000      0.0000  0.0000  0.0000  0.0000  0.0000  0.0000  0.0000  0.0000  0.0000  0.0000  0.0000  0.0000  0.0000  0.0000
  o =  0.0140  v =  0.0000  0.0000  0.0000  0.0000  0.0000  0.0000  0.0000 -0.4620  0.0000 -0.0000  0.8869 -0.0000  0.0000 -0.0000      0.0000  0.0000  0.0000  0.0000  0.0000  0.0000  0.0000  0.0000  0.0000  0.0000  0.0000  0.0000  0.0000  0.0000
  o =  0.0341  v =  0.0000 -0.0000  0.9924  0.0000  0.0000 -0.1234  0.0000  0.0000  0.0000  0.0000  0.0000  0.0000  0.0000  0.0000      0.0000  0.0000  0.0000  0.0000  0.0000  0.0000  0.0000  0.0000  0.0000  0.0000  0.0000  0.0000  0.0000  0.0000
  o =  0.0341  v =  0.0000  0.0000  0.0000  0.0000  0.0000  0.0000  0.0000  0.0000 -0.0000  0.9924  0.0000  0.0000 -0.1234  0.0000      0.0000  0.0000  0.0000  0.0000  0.0000  0.0000  0.0000  0.0000  0.0000  0.0000  0.0000  0.0000  0.0000  0.0000
  o =  0.0341  v = -0.0000 -0.1234 -0.0000  0.0000  0.9924  0.0000  0.0000  0.0000  0.0000  0.0000  0.0000  0.0000  0.0000  0.0000      0.0000  0.0000  0.0000  0.0000  0.0000  0.0000  0.0000  0.0000  0.0000  0.0000  0.0000  0.0000  0.0000  0.0000
  o =  0.0341  v =  0.0000  0.0000  0.0000  0.0000  0.0000  0.0000  0.0000 -0.0000 -0.1234 -0.0000  0.0000  0.9924  0.0000  0.0000      0.0000  0.0000  0.0000  0.0000  0.0000  0.0000  0.0000  0.0000  0.0000  0.0000  0.0000  0.0000  0.0000  0.0000
  o =  0.0421  v =  0.0000  0.0000  0.0000  0.0000  0.0000  0.0000  0.0000  0.0000 -0.0000  0.0000 -0.0000  0.0000  0.0000 -1.0000      0.0000  0.0000  0.0000  0.0000  0.0000  0.0000  0.0000  0.0000  0.0000  0.0000  0.0000  0.0000  0.0000  0.0000
  o =  0.0421  v =  0.0000 -0.0000  0.0000 -0.0000  0.0000  0.0000 -1.0000  0.0000  0.0000  0.0000  0.0000  0.0000  0.0000  0.0000      0.0000  0.0000  0.0000  0.0000  0.0000  0.0000  0.0000  0.0000  0.0000  0.0000  0.0000  0.0000  0.0000  0.0000
  o =  0.0731  v =  0.0000  0.0000  0.0000  0.0000  0.0000  0.0000  0.0000 -0.0000 -0.0003 -0.1234  0.0000 -0.0000 -0.9924 -0.0000      0.0000  0.0000  0.0000  0.0000  0.0000  0.0000  0.0000  0.0000  0.0000  0.0000  0.0000  0.0000  0.0000  0.0000
  o =  0.0731  v = -0.0000 -0.0003 -0.1234  0.0000 -0.0000 -0.9924 -0.0000  0.0000  0.0000  0.0000  0.0000  0.0000  0.0000  0.0000      0.0000  0.0000  0.0000  0.0000  0.0000  0.0000  0.0000  0.0000  0.0000  0.0000  0.0000  0.0000  0.0000  0.0000
  o =  0.0731  v =  0.0000  0.0000  0.0000  0.0000  0.0000  0.0000  0.0000  0.0000 -0.9924  0.0000 -0.0000 -0.1234  0.0003  0.0000      0.0000  0.0000  0.0000  0.0000  0.0000  0.0000  0.0000  0.0000  0.0000  0.0000  0.0000  0.0000  0.0000  0.0000
  o =  0.0731  v =  0.0000 -0.9924  0.0000 -0.0000 -0.1234  0.0003  0.0000  0.0000  0.0000  0.0000  0.0000  0.0000  0.0000  0.0000      0.0000  0.0000  0.0000  0.0000  0.0000  0.0000  0.0000  0.0000  0.0000  0.0000  0.0000  0.0000  0.0000  0.0000
  o =  0.1610  v = -0.8869 -0.0000  0.0000 -0.4620  0.0000  0.0000  0.0000  0.0000  0.0000  0.0000  0.0000  0.0000  0.0000  0.0000      0.0000  0.0000  0.0000  0.0000  0.0000  0.0000  0.0000  0.0000  0.0000  0.0000  0.0000  0.0000  0.0000  0.0000
  o =  0.1610  v =  0.0000  0.0000  0.0000  0.0000  0.0000  0.0000  0.0000 -0.8869 -0.0000  0.0000 -0.4620  0.0000  0.0000  0.0000      0.0000  0.0000  0.0000  0.0000  0.0000  0.0000  0.0000  0.0000  0.0000  0.0000  0.0000  0.0000  0.0000  0.0000
     EDDAV:  cpu time    0.1912: real time    0.1916
       DOS:  cpu time    0.0003: real time    0.0003
    CHARGE:  cpu time    0.0413: real time    0.0415
    MIXING:  cpu time    0.0017: real time    0.0017
    --------------------------------------------
      LOOP:  cpu time    0.6681: real time    0.6695

 eigenvalue-minimisations  :   576
 total energy-change (2. order) :-0.1597329E-01  (-0.3296948E-01)
 number of electron      24.0000000 magnetization 
 augmentation part       -0.4687085 magnetization 

 Broyden mixing:
  rms(total) = 0.88657E-01    rms(broyden)= 0.88646E-01
  rms(prec ) = 0.92464E-01
  weight for this iteration     100.00

 eigenvalues of (default mixing * dielectric matrix)
  average eigenvalue GAMMA=   1.0478
  2.0569  1.2339  0.5025  0.7228  0.7228

 Free energy of the ion-electron system (eV)
  ---------------------------------------------------
  alpha Z        PSCENC =        12.84742951
  Ewald energy   TEWEN  =      9254.51079495
  -Hartree energ DENC   =    -10914.04056733
  -exchange      EXHF   =         0.00000000
  -V(xc)+E(xc)   XCENC  =        62.88638726
  PAW double counting   =      1847.01423901    -1825.13718512
  entropy T*S    EENTRO =         0.00000000
  eigenvalues    EBANDS =      -388.97902276
  atomic energy  EATOM  =      1927.56740593
  Solvation  Ediel_sol  =         0.00000000
  ---------------------------------------------------
  free energy    TOTEN  =       -23.33051855 eV

  energy without entropy =      -23.33051855  energy(sigma->0) =      -23.33051855


--------------------------------------------------------------------------------------------------------




--------------------------------------- Iteration      1(  11)  ---------------------------------------


    POTLOK:  cpu time    0.0171: real time    0.0171
    SETDIJ:  cpu time    0.3911: real time    0.3917
atom =   1  type =  1  l = 3
 
 onsite density matrix
 
spin component  1
 
  0.1290  0.0000 -0.0000  0.0624  0.0000 -0.0000 -0.0000
  0.0000  0.0695 -0.0000  0.0000  0.0048 -0.0000 -0.0000
 -0.0000 -0.0000  0.0321 -0.0000 -0.0000  0.0048 -0.0000
  0.0624  0.0000 -0.0000  0.0457 -0.0000 -0.0000  0.0000
  0.0000  0.0048 -0.0000 -0.0000  0.0321 -0.0000 -0.0000
 -0.0000 -0.0000  0.0048 -0.0000 -0.0000  0.0695  0.0000
 -0.0000 -0.0000 -0.0000  0.0000 -0.0000  0.0000  0.0403
 
spin component  2
 
  0.1290  0.0000 -0.0000  0.0624  0.0000 -0.0000 -0.0000
  0.0000  0.0695 -0.0000  0.0000  0.0048 -0.0000 -0.0000
 -0.0000 -0.0000  0.0321 -0.0000 -0.0000  0.0048 -0.0000
  0.0624  0.0000 -0.0000  0.0457 -0.0000 -0.0000  0.0000
  0.0000  0.0048 -0.0000 -0.0000  0.0321 -0.0000 -0.0000
 -0.0000 -0.0000  0.0048 -0.0000 -0.0000  0.0695  0.0000
 -0.0000 -0.0000 -0.0000  0.0000 -0.0000  0.0000  0.0403
 
 occupancies and eigenvectors
 
  o =  0.0123  v = -0.4719 -0.0000 -0.0000  0.8816  0.0000  0.0000 -0.0000  0.0000  0.0000  0.0000  0.0000  0.0000  0.0000  0.0000      0.0000  0.0000  0.0000  0.0000  0.0000  0.0000  0.0000  0.0000  0.0000  0.0000  0.0000  0.0000  0.0000  0.0000
  o =  0.0123  v =  0.0000  0.0000  0.0000  0.0000  0.0000  0.0000  0.0000 -0.4719 -0.0000 -0.0000  0.8816  0.0000  0.0000 -0.0000      0.0000  0.0000  0.0000  0.0000  0.0000  0.0000  0.0000  0.0000  0.0000  0.0000  0.0000  0.0000  0.0000  0.0000
  o =  0.0315  v = -0.0000  0.0000 -0.9922 -0.0000 -0.0003  0.1250 -0.0000  0.0000  0.0000  0.0000  0.0000  0.0000  0.0000  0.0000      0.0000  0.0000  0.0000  0.0000  0.0000  0.0000  0.0000  0.0000  0.0000  0.0000  0.0000  0.0000  0.0000  0.0000
  o =  0.0315  v =  0.0000  0.0000  0.0000  0.0000  0.0000  0.0000  0.0000 -0.0000  0.0000 -0.9922 -0.0000 -0.0003  0.1250 -0.0000      0.0000  0.0000  0.0000  0.0000  0.0000  0.0000  0.0000  0.0000  0.0000  0.0000  0.0000  0.0000  0.0000  0.0000
  o =  0.0315  v = -0.0000  0.1250  0.0003  0.0000 -0.9922 -0.0000 -0.0000  0.0000  0.0000  0.0000  0.0000  0.0000  0.0000  0.0000      0.0000  0.0000  0.0000  0.0000  0.0000  0.0000  0.0000  0.0000  0.0000  0.0000  0.0000  0.0000  0.0000  0.0000
  o =  0.0315  v =  0.0000  0.0000  0.0000  0.0000  0.0000  0.0000  0.0000 -0.0000  0.1250  0.0003  0.0000 -0.9922 -0.0000 -0.0000      0.0000  0.0000  0.0000  0.0000  0.0000  0.0000  0.0000  0.0000  0.0000  0.0000  0.0000  0.0000  0.0000  0.0000
  o =  0.0403  v =  0.0000  0.0000  0.0000  0.0000  0.0000  0.0000  0.0000  0.0000 -0.0000  0.0000 -0.0000  0.0000  0.0000 -1.0000      0.0000  0.0000  0.0000  0.0000  0.0000  0.0000  0.0000  0.0000  0.0000  0.0000  0.0000  0.0000  0.0000  0.0000
  o =  0.0403  v =  0.0000 -0.0000  0.0000 -0.0000  0.0000  0.0000 -1.0000  0.0000  0.0000  0.0000  0.0000  0.0000  0.0000  0.0000      0.0000  0.0000  0.0000  0.0000  0.0000  0.0000  0.0000  0.0000  0.0000  0.0000  0.0000  0.0000  0.0000  0.0000
  o =  0.0701  v =  0.0000  0.0000  0.0000  0.0000  0.0000  0.0000  0.0000 -0.0000 -0.0013 -0.1250  0.0000 -0.0002 -0.9922 -0.0000      0.0000  0.0000  0.0000  0.0000  0.0000  0.0000  0.0000  0.0000  0.0000  0.0000  0.0000  0.0000  0.0000  0.0000
  o =  0.0701  v = -0.0000 -0.0013 -0.1250  0.0000 -0.0002 -0.9922 -0.0000  0.0000  0.0000  0.0000  0.0000  0.0000  0.0000  0.0000      0.0000  0.0000  0.0000  0.0000  0.0000  0.0000  0.0000  0.0000  0.0000  0.0000  0.0000  0.0000  0.0000  0.0000
  o =  0.0701  v =  0.0000  0.0000  0.0000  0.0000  0.0000  0.0000  0.0000  0.0000 -0.9922  0.0002 -0.0000 -0.1250  0.0013  0.0000      0.0000  0.0000  0.0000  0.0000  0.0000  0.0000  0.0000  0.0000  0.0000  0.0000  0.0000  0.0000  0.0000  0.0000
  o =  0.0701  v =  0.0000 -0.9922  0.0002 -0.0000 -0.1250  0.0013  0.0000  0.0000  0.0000  0.0000  0.0000  0.0000  0.0000  0.0000      0.0000  0.0000  0.0000  0.0000  0.0000  0.0000  0.0000  0.0000  0.0000  0.0000  0.0000  0.0000  0.0000  0.0000
  o =  0.1624  v = -0.8816 -0.0000  0.0000 -0.4719 -0.0000  0.0000  0.0000  0.0000  0.0000  0.0000  0.0000  0.0000  0.0000  0.0000      0.0000  0.0000  0.0000  0.0000  0.0000  0.0000  0.0000  0.0000  0.0000  0.0000  0.0000  0.0000  0.0000  0.0000
  o =  0.1624  v =  0.0000  0.0000  0.0000  0.0000  0.0000  0.0000  0.0000 -0.8816 -0.0000  0.0000 -0.4719 -0.0000  0.0000  0.0000      0.0000  0.0000  0.0000  0.0000  0.0000  0.0000  0.0000  0.0000  0.0000  0.0000  0.0000  0.0000  0.0000  0.0000
     EDDAV:  cpu time    0.1550: real time    0.1554
       DOS:  cpu time    0.0002: real time    0.0002
    CHARGE:  cpu time    0.0411: real time    0.0412
    MIXING:  cpu time    0.0011: real time    0.0011
    --------------------------------------------
      LOOP:  cpu time    0.6056: real time    0.6067

 eigenvalue-minimisations  :   480
 total energy-change (2. order) : 0.3990624E-02  (-0.6567403E-02)
 number of electron      24.0000000 magnetization 
 augmentation part       -0.4488198 magnetization 

 Broyden mixing:
  rms(total) = 0.13839E+00    rms(broyden)= 0.13839E+00
  rms(prec ) = 0.14145E+00
  weight for this iteration     100.00

 eigenvalues of (default mixing * dielectric matrix)
  average eigenvalue GAMMA=   1.3439
  2.1863  1.9650  1.9650  0.7987  0.5195  0.6290

 Free energy of the ion-electron system (eV)
  ---------------------------------------------------
  alpha Z        PSCENC =        12.84742951
  Ewald energy   TEWEN  =      9254.51079495
  -Hartree energ DENC   =    -10917.03929275
  -exchange      EXHF   =         0.00000000
  -V(xc)+E(xc)   XCENC  =        62.87468712
  PAW double counting   =      1851.39171098    -1829.07881688
  entropy T*S    EENTRO =         0.00000000
  eigenvalues    EBANDS =      -386.40044679
  atomic energy  EATOM  =      1927.56740593
  Solvation  Ediel_sol  =         0.00000000
  ---------------------------------------------------
  free energy    TOTEN  =       -23.32652793 eV

  energy without entropy =      -23.32652793  energy(sigma->0) =      -23.32652793


--------------------------------------------------------------------------------------------------------




--------------------------------------- Iteration      1(  12)  ---------------------------------------


    POTLOK:  cpu time    0.0165: real time    0.0166
    SETDIJ:  cpu time    0.4059: real time    0.4066
atom =   1  type =  1  l = 3
 
 onsite density matrix
 
spin component  1
 
  0.1328  0.0000 -0.0000  0.0697 -0.0000 -0.0000  0.0000
  0.0000  0.0669 -0.0000 -0.0000  0.0051  0.0000 -0.0000
 -0.0000 -0.0000  0.0286 -0.0000 -0.0000  0.0051  0.0000
  0.0697 -0.0000 -0.0000  0.0496 -0.0000 -0.0000  0.0000
 -0.0000  0.0051 -0.0000 -0.0000  0.0286  0.0000 -0.0000
 -0.0000  0.0000  0.0051 -0.0000  0.0000  0.0669 -0.0000
  0.0000 -0.0000  0.0000  0.0000 -0.0000 -0.0000  0.0381
 
spin component  2
 
  0.1328  0.0000 -0.0000  0.0697 -0.0000 -0.0000  0.0000
  0.0000  0.0669 -0.0000 -0.0000  0.0051  0.0000 -0.0000
 -0.0000 -0.0000  0.0286 -0.0000 -0.0000  0.0051  0.0000
  0.0697 -0.0000 -0.0000  0.0496 -0.0000 -0.0000  0.0000
 -0.0000  0.0051 -0.0000 -0.0000  0.0286  0.0000 -0.0000
 -0.0000  0.0000  0.0051 -0.0000  0.0000  0.0669 -0.0000
  0.0000 -0.0000  0.0000  0.0000 -0.0000 -0.0000  0.0381
 
 occupancies and eigenvectors
 
  o =  0.0100  v = -0.4938  0.0000 -0.0000  0.8696 -0.0000  0.0000  0.0000  0.0000  0.0000  0.0000  0.0000  0.0000  0.0000  0.0000      0.0000  0.0000  0.0000  0.0000  0.0000  0.0000  0.0000  0.0000  0.0000  0.0000  0.0000  0.0000  0.0000  0.0000
  o =  0.0100  v =  0.0000  0.0000  0.0000  0.0000  0.0000  0.0000  0.0000 -0.4938  0.0000 -0.0000  0.8696 -0.0000  0.0000  0.0000      0.0000  0.0000  0.0000  0.0000  0.0000  0.0000  0.0000  0.0000  0.0000  0.0000  0.0000  0.0000  0.0000  0.0000
  o =  0.0279  v = -0.0000  0.0000 -0.9914 -0.0000 -0.0002  0.1309  0.0000  0.0000  0.0000  0.0000  0.0000  0.0000  0.0000  0.0000      0.0000  0.0000  0.0000  0.0000  0.0000  0.0000  0.0000  0.0000  0.0000  0.0000  0.0000  0.0000  0.0000  0.0000
  o =  0.0279  v =  0.0000  0.0000  0.0000  0.0000  0.0000  0.0000  0.0000 -0.0000  0.0000 -0.9914 -0.0000 -0.0002  0.1309  0.0000      0.0000  0.0000  0.0000  0.0000  0.0000  0.0000  0.0000  0.0000  0.0000  0.0000  0.0000  0.0000  0.0000  0.0000
  o =  0.0279  v = -0.0000 -0.1309 -0.0002  0.0000  0.9914  0.0000  0.0000  0.0000  0.0000  0.0000  0.0000  0.0000  0.0000  0.0000      0.0000  0.0000  0.0000  0.0000  0.0000  0.0000  0.0000  0.0000  0.0000  0.0000  0.0000  0.0000  0.0000  0.0000
[...]
  eigenvalues    EBANDS =      -359.15342369
  atomic energy  EATOM  =      1927.56740593
  Solvation  Ediel_sol  =         0.00000000
  ---------------------------------------------------
  free energy    TOTEN  =       -23.30537855 eV

  energy without entropy =      -23.30537855  energy(sigma->0) =      -23.30537855


--------------------------------------------------------------------------------------------------------




 average (electrostatic) potential at core
  the test charge radii are     1.1513  0.7215
  (the norm of the test charge is              1.0000)
       1 -88.9617       2 -78.1012       3 -78.1012
 
 
 
 E-fermi :  -5.0635     XC(G=0):  -1.5136     alpha+bet : -1.5776


 k-point     1 :       0.0000    0.0000    0.0000
  band No.  band energies     occupation 
      1     -38.3968      2.00000
      2     -22.2751      2.00000
      3     -20.9222      2.00000
      4     -20.4807      2.00000
      5     -20.4807      2.00000
      6     -18.5971      2.00000
      7      -8.5463      2.00000
      8      -8.5463      2.00000
      9      -6.9568      2.00000
     10      -5.9574      2.00000
     11      -5.1373      2.00000
     12      -5.1373      2.00000
     13      -2.2790      0.00000
     14      -2.0430      0.00000
     15      -2.0430      0.00000
     16      -1.7197      0.00000

 k-point     2 :       0.1250    0.0000    0.0000
  band No.  band energies     occupation 
      1     -38.3712      2.00000
      2     -22.2091      2.00000
      3     -21.9421      2.00000
      4     -20.5359      2.00000
      5     -19.4349      2.00000
      6     -18.7783      2.00000
      7      -8.3158      2.00000
      8      -8.1931      2.00000
      9      -6.9542      2.00000
     10      -5.9749      2.00000
     11      -5.2754      2.00000
     12      -5.1880      2.00000
     13      -2.2486      0.00000
     14      -2.0473      0.00000
     15      -2.0264      0.00000
     16      -1.7269      0.00000

 k-point     3 :       0.2500    0.0000    0.0000
  band No.  band energies     occupation 
      1     -38.3083      2.00000
      2     -23.0074      2.00000
      3     -21.9004      2.00000
      4     -20.6646      2.00000
      5     -19.5199      2.00000
      6     -18.1012      2.00000
      7      -7.7343      2.00000
      8      -7.5156      2.00000
      9      -7.0082      2.00000
     10      -5.9556      2.00000
     11      -5.3248      2.00000
     12      -5.3108      2.00000
     13      -2.1561      0.00000
     14      -2.0578      0.00000
     15      -1.9873      0.00000
     16      -1.8801      0.00000

 k-point     4 :       0.3750    0.0000    0.0000
  band No.  band energies     occupation 
      1     -38.2440      2.00000
      2     -23.6870      2.00000
      3     -21.4725      2.00000
      4     -20.7874      2.00000
      5     -20.2153      2.00000
      6     -17.2599      2.00000
      7      -7.7759      2.00000
      8      -7.1109      2.00000
      9      -6.3515      2.00000
     10      -5.6626      2.00000
     11      -5.4344      2.00000
     12      -5.2725      2.00000
     13      -2.1544      0.00000
     14      -2.0685      0.00000
     15      -2.0388      0.00000
     16      -2.0278      0.00000

 k-point     5 :       0.5000    0.0000    0.0000
  band No.  band energies     occupation 
      1     -38.2168      2.00000
      2     -23.9261      2.00000
      3     -20.9612      2.00000
      4     -20.8366      2.00000
      5     -20.8311      2.00000
      6     -16.9443      2.00000
      7      -7.9912      2.00000
      8      -6.8364      2.00000
      9      -5.8912      2.00000
     10      -5.4853      2.00000
     11      -5.4416      2.00000
     12      -5.3892      2.00000
     13      -2.2692      0.00000
     14      -2.0934      0.00000
     15      -2.0717      0.00000
     16      -1.9777      0.00000

 k-point     6 :       0.1250    0.1250    0.0000
  band No.  band energies     occupation 
      1     -38.3269      2.00000
      2     -22.6942      2.00000
      3     -22.0849      2.00000
      4     -20.7005      2.00000
      5     -19.0377      2.00000
      6     -18.6010      2.00000
      7      -7.8849      2.00000
      8      -7.6443      2.00000
      9      -7.0117      2.00000
     10      -6.0341      2.00000
     11      -5.4550      2.00000
     12      -5.1487      2.00000
     13      -2.1864      0.00000
     14      -2.0584      0.00000
     15      -1.9897      0.00000
     16      -1.8625      0.00000

 k-point     7 :       0.2500    0.1250    0.0000
  band No.  band energies     occupation 
      1     -38.2630      2.00000
      2     -23.3785      2.00000
      3     -21.9680      2.00000
      4     -20.9069      2.00000
      5     -19.3622      2.00000
      6     -17.7612      2.00000
      7      -7.4044      2.00000
      8      -7.2212      2.00000
      9      -6.8268      2.00000
     10      -5.9525      2.00000
     11      -5.5028      2.00000
     12      -5.0978      2.00000
     13      -2.0963      0.00000
     14      -2.0726      0.00000
     15      -2.0440      0.00000
     16      -1.9529      0.00000

 k-point     8 :       0.3750    0.1250    0.0000
  band No.  band energies     occupation 
      1     -38.2170      2.00000
      2     -23.7691      2.00000
      3     -21.9208      2.00000
      4     -20.9530      2.00000
      5     -19.6480      2.00000
      6     -17.2370      2.00000
      7      -7.7439      2.00000
      8      -6.7263      2.00000
      9      -6.1874      2.00000
     10      -5.7279      2.00000
     11      -5.5280      2.00000
     12      -5.1698      2.00000
     13      -2.2263      0.00000
     14      -2.1058      0.00000
     15      -2.0343      0.00000
     16      -1.9817      0.00000

 k-point     9 :       0.2500    0.2500    0.0000
  band No.  band energies     occupation 
      1     -38.2173      2.00000
      2     -23.5282      2.00000
      3     -22.4858      2.00000
      4     -20.9537      2.00000
      5     -18.8899      2.00000
      6     -17.6986      2.00000
      7      -7.2769      2.00000
      8      -6.7772      2.00000
      9      -6.5820      2.00000
     10      -5.7756      2.00000
     11      -5.6270      2.00000
     12      -5.0921      2.00000
     13      -2.1613      0.00000
     14      -2.1548      0.00000
     15      -1.9867      0.00000
     16      -1.9355      0.00000

 k-point    10 :       0.3750    0.2500    0.0000
  band No.  band energies     occupation 
      1     -38.1980      2.00000
      2     -23.5118      2.00000
      3     -22.7964      2.00000
      4     -20.9228      2.00000
      5     -18.6765      2.00000
      6     -17.7201      2.00000
      7      -7.3078      2.00000
      8      -6.4686      2.00000
      9      -6.4295      2.00000
     10      -5.7974      2.00000
     11      -5.4382      2.00000
     12      -5.3301      2.00000
     13      -2.2172      0.00000
     14      -2.1745      0.00000
     15      -1.9590      0.00000
     16      -1.9484      0.00000


--------------------------------------------------------------------------------------------------------


 soft charge-density along one line, spin component           1
         0         1         2         3         4         5         6         7         8         9
 total charge-density along one line
 
 pseudopotential strength for first ion, spin component:           1
 25.141 -19.358   0.000   0.000   0.000  -0.000  -0.000  -0.000
-19.358  10.292  -0.000  -0.000  -0.000   0.000   0.000   0.000
  0.000  -0.000  14.468   0.000   0.000  -6.528  -0.000  -0.000
  0.000  -0.000   0.000  14.426  -0.000  -0.000  -6.459   0.000
  0.000  -0.000   0.000  -0.000  14.468  -0.000   0.000  -6.528
 -0.000   0.000  -6.528  -0.000  -0.000  13.911  -0.000  -0.000
 -0.000   0.000  -0.000  -6.459   0.000  -0.000  13.839   0.000
 -0.000   0.000  -0.000   0.000  -6.528  -0.000   0.000  13.911
  0.000  -0.000   0.000  -0.000   0.000   0.000  -0.000   0.000
  0.000  -0.000   0.000   0.000  -0.000   0.000   0.000  -0.000
 -0.017   0.004  -0.000   0.000  -0.000  -0.000   0.000  -0.000
 -0.000   0.000  -0.000   0.000  -0.000  -0.000   0.000  -0.000
 -0.000   0.000  -0.000  -0.000   0.000  -0.000  -0.000   0.000
 -0.000   0.000  -0.000   0.000  -0.000  -0.000   0.000  -0.000
 -0.000   0.000  -0.000  -0.000   0.000  -0.000  -0.000   0.000
  0.041  -0.009   0.000  -0.000   0.000   0.000  -0.000   0.000
  0.000  -0.000   0.000  -0.000   0.000   0.000  -0.000   0.000
  0.000  -0.000   0.000   0.000  -0.000   0.000   0.000  -0.000
  0.000  -0.000   0.000  -0.013  -0.000  -0.000   0.010   0.000
  0.000  -0.000   0.000  -0.000  -0.015  -0.000   0.000   0.012
  0.000  -0.000  -0.022  -0.000   0.000   0.010   0.000  -0.000
 -0.000   0.000   0.000  -0.032  -0.000  -0.000   0.016   0.000
  0.000  -0.000   0.000   0.000  -0.022  -0.000  -0.000   0.010
  0.000  -0.000  -0.015   0.000   0.000   0.012  -0.000  -0.000
 -0.000   0.000   0.000   0.000   0.000  -0.000  -0.000  -0.000
  0.000  -0.000   0.000  -0.012  -0.000  -0.000   0.010   0.000
  0.000  -0.000   0.000  -0.000  -0.015  -0.000   0.000   0.012
  0.000  -0.000  -0.022  -0.000   0.000   0.011   0.000  -0.000
 -0.000   0.000   0.000  -0.032  -0.000  -0.000   0.017   0.000
  0.000  -0.000   0.000   0.000  -0.022  -0.000  -0.000   0.011
  0.000  -0.000  -0.015   0.000   0.000   0.012  -0.000  -0.000
 -0.000   0.000   0.000   0.000   0.000  -0.000  -0.000  -0.000
 total augmentation occupancy for first ion, spin component:           1
  1.851  -0.387   0.000   0.000   0.000   0.000   0.000   0.000   0.000   0.000   0.019   0.000  -0.000  -0.000   0.000  -0.007
 -0.387   0.957   0.000   0.000   0.000   0.000   0.000   0.000   0.000  -0.000  -0.333   0.000   0.000  -0.000   0.000  -0.059
  0.000   0.000   2.059   0.000   0.000  -0.078   0.000  -0.000   0.000   0.000   0.000   0.000   0.000   0.000   0.000   0.000
  0.000   0.000   0.000   2.023  -0.000   0.000  -0.050   0.000   0.000   0.000   0.000   0.000   0.000   0.000   0.000   0.000
  0.000   0.000   0.000   0.000   2.059   0.000   0.000  -0.078   0.000   0.000   0.000   0.000   0.000   0.000   0.000   0.000
  0.000   0.000  -0.078   0.000   0.000   0.020   0.000  -0.000   0.000   0.000   0.000   0.000   0.000   0.000   0.000   0.000
  0.000   0.000   0.000  -0.050   0.000  -0.000   0.007   0.000   0.000   0.000   0.000   0.000   0.000   0.000   0.000   0.000
  0.000   0.000   0.000   0.000  -0.078   0.000   0.000   0.020   0.000   0.000   0.000   0.000   0.000   0.000   0.000   0.000
 -0.000   0.000   0.000   0.000   0.000   0.000   0.000   0.000   0.704   0.000  -0.000  -0.270  -0.000   0.126   0.000   0.000
  0.000  -0.000   0.000   0.000   0.000   0.000   0.000   0.000  -0.000   0.498   0.000   0.000  -0.270   0.000   0.080   0.000
  0.019  -0.333   0.000   0.000   0.000   0.000   0.000   0.000   0.000   0.000   0.338   0.000  -0.000   0.000   0.000   0.055
 -0.000   0.000   0.000   0.000   0.000   0.000   0.000   0.000  -0.270   0.000   0.000   0.498   0.000  -0.052  -0.000   0.000
 -0.000   0.000   0.000   0.000   0.000   0.000   0.000   0.000  -0.000  -0.270  -0.000   0.000   0.704   0.000  -0.052  -0.000
 -0.000   0.000   0.000   0.000   0.000   0.000   0.000   0.000   0.126  -0.000   0.000  -0.052  -0.000   0.024   0.000   0.000
  0.000   0.000   0.000   0.000   0.000   0.000   0.000   0.000  -0.000   0.080   0.000   0.000  -0.052  -0.000   0.014   0.000
 -0.007  -0.059   0.000   0.000   0.000   0.000   0.000   0.000  -0.000   0.000   0.055   0.000  -0.000  -0.000   0.000   0.010
  0.000   0.000   0.000   0.000   0.000   0.000   0.000   0.000  -0.052  -0.000  -0.000   0.080   0.000  -0.011  -0.000  -0.000
  0.000   0.000   0.000   0.000   0.000   0.000   0.000   0.000   0.000  -0.052  -0.000   0.000   0.126  -0.000  -0.011  -0.000
  0.000   0.000   0.000  -0.201   0.000  -0.000   0.130   0.000   0.000   0.000   0.000   0.000   0.000   0.000   0.000   0.000
  0.000   0.000  -0.000  -0.000  -0.260   0.000   0.000   0.167   0.000   0.000   0.000   0.000   0.000   0.000   0.000   0.000
  0.000   0.000  -0.267   0.000   0.000   0.104  -0.000  -0.000   0.000   0.000   0.000   0.000   0.000   0.000   0.000   0.000
  0.000   0.000   0.000  -0.353   0.000  -0.000   0.127   0.000   0.000   0.000   0.000   0.000   0.000   0.000   0.000   0.000
  0.000   0.000  -0.000   0.000  -0.267   0.000   0.000   0.104   0.000   0.000   0.000   0.000   0.000   0.000   0.000   0.000
  0.000   0.000  -0.260   0.000   0.000   0.167  -0.000  -0.000   0.000   0.000   0.000   0.000   0.000   0.000   0.000   0.000
  0.000   0.000   0.000  -0.000   0.000   0.000  -0.000  -0.000   0.000   0.000   0.000   0.000   0.000   0.000   0.000   0.000
  0.000   0.000  -0.000   0.257   0.000   0.000  -0.151   0.000   0.000   0.000   0.000   0.000   0.000   0.000   0.000   0.000
  0.000   0.000   0.000   0.000   0.339   0.000  -0.000  -0.197   0.000   0.000   0.000   0.000   0.000   0.000   0.000   0.000
  0.000   0.000   0.317  -0.000   0.000  -0.120   0.000   0.000   0.000   0.000   0.000   0.000   0.000   0.000   0.000   0.000
  0.000   0.000  -0.000   0.419  -0.000   0.000  -0.148  -0.000   0.000   0.000   0.000   0.000   0.000   0.000   0.000   0.000
  0.000   0.000   0.000   0.000   0.317   0.000   0.000  -0.120   0.000   0.000   0.000   0.000   0.000   0.000   0.000   0.000
  0.000   0.000   0.339  -0.000   0.000  -0.197   0.000   0.000   0.000   0.000   0.000   0.000   0.000   0.000   0.000   0.000
  0.000   0.000  -0.000  -0.000  -0.000   0.000  -0.000   0.000   0.000   0.000   0.000   0.000   0.000   0.000   0.000   0.000


------------------------ aborting loop because EDIFF is reached ----------------------------------------


 


 total charge     
 
# of ion       s       p       d       f       tot
--------------------------------------------------
    1        1.996   5.805   0.976   0.785   9.563
    2        1.603   3.445   0.000   0.000   5.048
    3        1.603   3.445   0.000   0.000   5.048
--------------------------------------------------
tot          5.202  12.696   0.976   0.785  19.659

 
    CHARGE:  cpu time    0.0392: real time    0.0393
    FORLOC:  cpu time    0.0021: real time    0.0021
    FORNL :  cpu time    0.1538: real time    0.1542
    STRESS:  cpu time    0.5079: real time    0.5091
    FORCOR:  cpu time    0.0198: real time    0.0199
    FORHAR:  cpu time    0.0048: real time    0.0048
    MIXING:  cpu time    0.0018: real time    0.0018
    OFIELD:  cpu time    0.0001: real time    0.0001

  FORCE on cell =-STRESS in cart. coord.  units (eV):
  Direction    XX          YY          ZZ          XY          YZ          ZX
  --------------------------------------------------------------------------------------
  Alpha Z    12.84743    12.84743    12.84743
  Ewald   10490.00037 10490.00090-11725.49118     0.00045     0.00018    -0.00031
  Hartree 10754.52902 10754.52904-10563.77847     0.00002     0.00001    -0.00002
  E(xc)    -114.06971  -114.06971  -115.69333     0.00000     0.00000    -0.00000
  Local  -21629.79333-21629.79370 21905.73933    -0.00032    -0.00012     0.00021
  n-local    15.73400    16.39518    24.99308    -0.85184     0.33031     2.26040
  augment   -17.54092   -17.54084   -16.54195     0.00007     0.00000    -0.00000
  Kinetic   487.02910   486.49864   478.51513    -0.23376    -0.48124    -3.19605
  Fock        0.00000     0.00000     0.00000     0.00000     0.00000     0.00000
  -------------------------------------------------------------------------------------
  Total      -1.19855    -1.19855     0.59003     0.00000     0.00000    -0.00000
  in kB      -4.63649    -4.63649     2.28250     0.00000     0.00000    -0.00000
  external pressure =       -2.33 kB  Pullay stress =        0.00 kB


 VOLUME and BASIS-vectors are now :
 -----------------------------------------------------------------------------
  energy-cutoff  :      400.00
  volume of cell :      414.17
      direct lattice vectors                 reciprocal lattice vectors
     3.719947354  0.000000000  0.000000000     0.268821009  0.155203882  0.000000000
    -1.859973677  3.221568910  0.000000000     0.000000000  0.310407763  0.000000000
     0.000000000  0.000000000 34.560000000     0.000000000  0.000000000  0.028935185

  length of vectors
     3.719947354  3.719947354 34.560000000     0.310407763  0.310407763  0.028935185


 FORCES acting on ions
    electron-ion (+dipol)            ewald-force                    non-local-force                 convergence-correction
 -----------------------------------------------------------------------------------------------
   0.305E-04 0.528E-04 -.848E-11   -.296E-03 -.513E-03 0.114E-12   0.421E-21 -.120E-20 0.241E-21   0.496E-09 0.860E-09 0.530E-12
   0.586E-05 0.248E-02 -.494E+03   -.559E-04 0.374E-03 0.502E+03   0.284E-16 -.391E-16 -.669E+01   -.212E-08 0.639E-08 0.204E-03
   0.214E-02 0.124E-02 0.494E+03   0.352E-03 0.139E-03 -.502E+03   -.310E-16 0.698E-17 0.669E+01   0.659E-08 0.136E-08 -.204E-03
 -----------------------------------------------------------------------------------------------
   0.218E-02 0.377E-02 0.578E-11   0.451E-14 0.133E-17 0.000E+00   -.265E-17 -.321E-16 0.000E+00   0.497E-08 0.861E-08 0.104E-11
 
 
 POSITION                                       TOTAL-FORCE (eV/Angst)
 -----------------------------------------------------------------------------------
      0.00000      0.00000      0.00000         0.000000      0.000000      0.000000
      0.00000      2.14771      0.75933         0.000000      0.000000      1.297179
      1.85997      1.07386     33.80067        -0.000000     -0.000000     -1.297179
 -----------------------------------------------------------------------------------
    total drift:                                0.002178      0.003772      0.000000


--------------------------------------------------------------------------------------------------------



  FREE ENERGIE OF THE ION-ELECTRON SYSTEM (eV)
  ---------------------------------------------------
  free  energy   TOTEN  =       -23.30537855 eV

  energy  without entropy=      -23.30537855  energy(sigma->0) =      -23.30537855
 


--------------------------------------------------------------------------------------------------------


    POTLOK:  cpu time    0.4024: real time    0.4032


--------------------------------------------------------------------------------------------------------


     LOOP+:  cpu time   16.9174: real time   17.0008
    4ORBIT:  cpu time    0.0000: real time    0.0000
 


 total charge     
 
# of ion       s       p       d       f       tot
--------------------------------------------------
    1        1.996   5.805   0.976   0.785   9.563
    2        1.603   3.445   0.000   0.000   5.048
    3        1.603   3.445   0.000   0.000   5.048
--------------------------------------------------
tot          5.202  12.696   0.976   0.785  19.659

 

 total amount of memory used by VASP MPI-rank0    41686. kBytes
=======================================================================

   base      :      30000. kBytes
   nonl-proj :       2449. kBytes
   fftplans  :       5492. kBytes
   grid      :       3049. kBytes
   one-center:         49. kBytes
   wavefun   :        647. kBytes
 
  
  
 General timing and accounting informations for this job:
 ========================================================
  
                  Total CPU time used (sec):       18.536
                            User time (sec):       16.808
                          System time (sec):        1.728
                         Elapsed time (sec):       19.156
  
                   Maximum memory used (kb):      161668.
                   Average memory used (kb):           0.
  
                          Minor page faults:       133692
                          Major page faults:            0
                 Voluntary context switches:         1913
