8
Lattice="0.0 1.5655000000000001 1.5655000000000001 1.5655000000000001 0.0 1.5655000000000001 1.5655000000000001 1.5655000000000001 0.0" Properties=species:S:1:pos:R:3:forces:R:3:stresses:R:6:energies:R:1 energy=-61.27096573518456 stress="0.8020929295553813 -0.45561105014496023 0.8453398265725218 -0.45561105014496023 1.0649804254107904 -0.1656008850454162 0.8453398265725218 -0.1656008850454162 0.8482540228530797" free_energy=-61.27096573518456 pbc="T T T"
Ne       0.03498909      -0.00572146      -0.00969130     -22.11371491      -9.29834593       5.55780634      -0.11016428       0.00568930      -0.00546447      -0.01175030       0.19046669      -0.19899966      -7.45476375
Ne       0.72193363       0.77483431      -0.00639263      20.59100582      10.21449799      -6.72220345      -0.10224046      -0.03600171      -0.01558608      -0.04473567       0.25046252      -0.17939289      -7.44126941
Ne       0.76426741       0.00630805       0.78342101       0.59925059      -8.76244958       3.83330585       0.17937150       0.20526516       0.22141381      -0.00518712      -0.03214196      -0.03395677      -7.77863620
Ne       1.52868794       0.75727521       0.76548533       1.38997449      10.62963344       2.06703553       0.22989898       0.17189320       0.22137350      -0.07596184      -0.00198610      -0.04712846      -7.78381854
Ne       0.01379365       0.78622384       0.74888903     -13.89508936      -3.88358102      15.91220294       0.01504430       0.13145941      -0.03286380       0.03978832       0.21825039      -0.00342152      -7.55709553
Ne       0.75261049       1.56473675       0.80649268      14.14574155      -0.60797782     -11.36097616       0.03904406       0.20824968       0.01489981      -0.03748614       0.22030504      -0.03665415      -7.62288394
Ne       0.77437850       0.76133107       1.57191259       1.23783611      -0.04426221       0.69909993       0.28217075       0.26566773       0.28149577      -0.01150765      -0.00699182       0.00931152      -7.87494320
Ne       1.54380847       1.56451504       1.58098143      -1.95500427       1.75248513      -9.98627097       0.26896807       0.11275765       0.16298548      -0.01876049       0.00697507       0.03463089      -7.75755516
