8
Lattice="0.0 1.519 1.519 1.519 0.0 1.519 1.519 1.519 0.0" Properties=species:S:1:pos:R:3:forces:R:3:stresses:R:6:energies:R:1 energy=-60.09648311858632 stress="-7.025572996375569 -0.4127459723974384 0.2947199515084218 -0.4127459723974384 -6.3318362082011275 0.012600776394821963 0.2947199515084218 0.012600776394821963 -6.612131203386145" free_energy=-60.09648311858632 pbc="T T T"
Ne       0.00993428      -0.00276529       0.01295377       8.18233051       1.66350990      -3.37105056      -0.69256869      -0.80728973      -0.75298002      -0.10223769      -0.03335248      -0.09616465      -7.62360258
Ne       0.80546060       0.77031693      -0.00468274     -14.21629306       1.88049016       8.19214832      -0.74954174      -0.79466491      -0.63201836      -0.02908233      -0.00547687      -0.03226183      -7.66342567
Ne       0.80658426       0.01534869       0.76561051      -7.39595214       3.74812638       0.45452883      -0.60402165      -0.61010465      -0.62922451       0.01161632      -0.03064690      -0.03708790      -7.79173422
Ne       1.56085120       0.76573165       0.76568540     -20.35446504       9.31711942      20.60131722      -1.07945790      -0.69853994      -1.02287111      -0.02766186       0.39273856       0.07961706      -7.38572995
Ne       0.00483925       0.73673440       0.74050164      18.70652006      14.25828822       7.46801189      -0.86777170      -0.71786744      -0.90008115      -0.07220148      -0.15979482      -0.02560858      -7.50547527
Ne       0.76375425       1.52974338       0.78128495       2.59511743     -23.30050170       4.96989495      -0.68977813      -0.88393417      -0.75381535       0.15897689       0.00630865       0.02707278      -7.58964576
Ne       0.75683952       0.74675393       1.57931298      15.64819844      15.33347805     -36.07534415      -1.46805958      -0.95705711      -1.23862393       0.10129115       0.16837616      -0.19310333      -6.99250102
Ne       1.54548447       1.55135056       1.52150504      -3.16545620     -22.90051043      -2.23950650      -0.87437360      -0.86237825      -0.68251677      -0.02810022      -0.04343235      -0.13520952      -7.54436864
