8
Lattice="0.0 1.5345 1.5345 1.5345 0.0 1.5345 1.5345 1.5345 0.0" Properties=species:S:1:pos:R:3:forces:R:3:stresses:R:6:energies:R:1 energy=-63.12404354280174 stress="-1.9984447162111347 -0.03718580138125689 -0.03718580138125694 -0.03718580138125689 -1.9984447162111347 -0.03718580138125707 -0.03718580138125694 -0.03718580138125707 -1.9984447162111338" free_energy=-63.12404354280174 pbc="T T T"
Ne       0.00000000       0.00000000       0.00000000       3.16928960       3.16928960       3.16928960      -0.24055061      -0.24055061      -0.24055061      -0.00941251      -0.00941251      -0.00941251      -7.90211650
Ne       0.77500000       0.77500000       0.00000000      -1.79560217      -1.79560217       6.76031428      -0.24993833      -0.24993833      -0.25879509      -0.00000306      -0.00000306      -0.00917428      -7.88663509
Ne       0.77500000       0.00000000       0.77500000      -1.79560217       6.76031428      -1.79560217      -0.24993833      -0.25879509      -0.24993833      -0.00000306      -0.00917428      -0.00000306      -7.88663509
Ne       1.55000000       0.77500000       0.77500000      -6.76031428       1.79560217       1.79560217      -0.25879509      -0.24993833      -0.24993833      -0.00917428      -0.00000306      -0.00000306      -7.88663509
Ne       0.00000000       0.77500000       0.77500000       6.76031428      -1.79560217      -1.79560217      -0.25879509      -0.24993833      -0.24993833      -0.00917428      -0.00000306      -0.00000306      -7.88663509
Ne       0.77500000       1.55000000       0.77500000       1.79560217      -6.76031428       1.79560217      -0.24993833      -0.25879509      -0.24993833      -0.00000306      -0.00917428      -0.00000306      -7.88663509
Ne       0.77500000       0.77500000       1.55000000       1.79560217       1.79560217      -6.76031428      -0.24993833      -0.24993833      -0.25879509      -0.00000306      -0.00000306      -0.00917428      -7.88663509
Ne       1.55000000       1.55000000       1.55000000      -3.16928960      -3.16928960      -3.16928960      -0.24055061      -0.24055061      -0.24055061      -0.00941251      -0.00941251      -0.00941251      -7.90211650
