27
Lattice="0.0 2.34825 2.34825 2.34825 0.0 2.34825 2.34825 2.34825 0.0" Properties=species:S:1:pos:R:3:forces:R:3:stresses:R:6:energies:R:1 energy=-208.05744110406695 stress="1.2043234761621688 -0.2360601015700561 -0.14365666618099612 -0.2360601015700561 1.2615253301509177 0.06104420840223319 -0.14365666618099612 0.06104420840223319 1.1281373420490153" free_energy=-208.05744110406695 pbc="T T T"
Ne       0.00945972      -0.01362852       0.00484879      -4.46360906      -1.21692781      -6.60949245       0.14478712       0.02286819       0.06717893      -0.01841084       0.03968226      -0.01561805      -7.77138423
Ne       0.74098529       0.79006286      -0.03069443       5.58953264      -1.52587698       7.28573421       0.10618233       0.09463746       0.09363556       0.02624605      -0.02134010      -0.03986468      -7.79492037
Ne       1.55010254       1.54759545      -0.01613964      -0.28970797      -0.68885106      -3.04656941       0.10406158       0.11653575       0.16415676      -0.03322895      -0.00750235       0.04090006      -7.84676024
Ne       0.83243639      -0.01195646       0.78444914     -15.16221821      -4.42154186      -7.52622496       0.01504507       0.09027701      -0.00434329      -0.03833006      -0.05231325      -0.05527592      -7.60291177
Ne       1.57191912       0.75069662       0.80184713      -1.62889200       8.51469233     -12.61352211       0.05007558       0.00210189       0.01077344       0.04714751       0.00916891      -0.07567839      -7.60053536
Ne       2.32255700       1.57025031       0.75672262       2.34498096      -5.33203653      -0.61897521       0.07250601       0.08277483       0.02973455       0.03226650      -0.06768914       0.03517858      -7.77708420
Ne       1.52940940       0.02419593       1.56003745      11.31481659     -14.21441402      10.81554519       0.08304199       0.08448363      -0.00034826       0.07995175      -0.09121330       0.02850630      -7.51101343
Ne       2.32777692       0.78781522       1.56054665      -4.83009835     -11.03707923      -1.55108331      -0.06793797       0.02681295       0.08042897      -0.00612336      -0.09647290      -0.10122078      -7.60635208
Ne       3.07691280       1.50573333       1.51636487      13.23901462      11.60840513       3.76376418       0.04582085       0.02942234       0.10273835       0.06807924      -0.03732879      -0.06831042      -7.56826660
Ne      -0.03576189       0.73062930       0.76205138      11.18512909       6.56966814       2.66661858       0.02075424       0.03783859      -0.00391245      -0.02696567      -0.00336633       0.01936989      -7.66434908
Ne       0.76443191       1.54921582       0.77929952       1.01083519      -9.17343246      -4.06625746       0.07595180       0.03298901       0.01055295       0.03513285       0.04149609       0.02532995      -7.73236253
Ne       1.54231282       2.31992192       0.77646504       0.02709327       0.89081397       0.84666998       0.00547960       0.01454208       0.05934338       0.00563178      -0.02035973      -0.01669713      -7.80881446
Ne       0.75505592       0.76072287       1.55070833      -0.03991859       2.17245353       4.53762355       0.02082218      -0.00838244       0.13794867      -0.02799400       0.01822138       0.04807638      -7.78069290
Ne       1.53644109       1.53856238       1.54788275       0.52969036       1.88514352      -1.95630796       0.01490499       0.06764219      -0.01694487      -0.02912528      -0.04040806       0.03213597      -7.80535732
Ne       2.35171663       2.33137331       1.54324809      -2.01841730      -3.80042874       2.62439384       0.11448931       0.02924585       0.08927261       0.00977154      -0.00395272       0.00725711      -7.87277501
Ne       1.53829463       0.77270160       2.36983636      -0.29745528      -7.62871297     -11.58164374       0.00069420       0.00387311      -0.00399897      -0.05147963       0.00933250      -0.03215546      -7.66530063
Ne       2.26205167       1.56070272       2.32964981      15.82846746      -0.64013880      -1.30163660       0.02096538       0.02657549      -0.01519804      -0.04911413       0.02945940      -0.02332809      -7.62384282
Ne       3.11735224       2.30203575       2.36728688      -0.04358160      -0.43549504     -17.27716510       0.02756078       0.05653000      -0.02679402      -0.01769469       0.06110100       0.03388166      -7.59133906
Ne       0.02001886       1.54897170       1.55319575     -10.74003195      -0.11327118       2.44765286       0.03645223       0.10062665       0.09221267       0.01522759       0.00777625      -0.02647337      -7.75131101
Ne       0.76067473       2.32601046       1.54713325      -0.30830087       7.20999100      -2.13501139       0.01490054       0.06683299       0.01727284      -0.00652171      -0.03631071      -0.03652181      -7.78685061
Ne       1.56887151       3.10715288       1.54833102      -7.13795291       1.99659690      -1.67500817       0.11224357       0.04786473       0.00739792       0.06490533       0.01267833       0.01411026      -7.73867771
Ne       0.78855612       1.56112121       2.32945439      -4.96030853      -4.44827765       5.16158669       0.05300054       0.04788249       0.07951639       0.02487790       0.00905917       0.01592127      -7.81966502
Ne       1.51942029       2.34558422       2.30167482       5.79031299       0.49726760       6.45887785      -0.00644367       0.01107896       0.05966436       0.02400693       0.00557230      -0.03668567      -7.66900884
Ne       2.30480877       3.09789464       2.33524044       5.38783578       3.52833405      -1.49509076       0.04749094       0.11183458       0.02634944       0.01384323      -0.06255254       0.00511466      -7.77186214
Ne       1.57815456       1.51624607       3.12942468      -8.70289765      10.10118469       6.37425181       0.05522150       0.06027567       0.00347650      -0.02041961       0.06516139       0.05012461      -7.63084437
Ne       2.35772926       2.31577210       3.09597275     -14.71052478       0.70235507       8.61598659      -0.00137459      -0.00355624       0.04999566       0.01210974       0.05329212      -0.01679247      -7.61429563
Ne       3.08856367       3.08793402       3.07321222       3.08620607       8.99957841      11.85528330       0.03762736       0.00791756       0.01802729      -0.07274580       0.03515214      -0.04734457      -7.65086369
