8
Lattice="0.0 1.5655000000000001 1.5655000000000001 1.5655000000000001 0.0 1.5655000000000001 1.5655000000000001 1.5655000000000001 0.0" Properties=species:S:1:pos:R:3:forces:R:3:stresses:R:6:energies:R:1 energy=-52.97218676840222 stress="-5.8787869743318435 2.173565954198945 -4.174594308729529 2.173565954198945 -2.3756477514836036 -0.487303800406943 -4.174594308729529 -0.487303800406943 -5.948046974256349" free_energy=-52.97218676840222 pbc="T T T"
Ne       0.01891943      -0.02725704       0.00969758     -23.32961150      11.58984988      -6.68205123      -0.31425143      -0.20570854       0.20027168      -0.01442004      -0.11594892       0.46912007      -7.32960395
Ne       0.70697057       0.80512571      -0.06138885      59.31409672      -1.06350516      61.67089687      -1.46253232       0.05822777      -2.16717592      -0.17658338      -2.08810925      -0.07669121      -5.65407069
Ne       0.77520508      -0.00480911       0.74272072      18.68816658       9.30310093      13.20654798      -0.19685382      -0.32451385      -0.10534887      -0.18028278      -0.01886553       0.06642323      -7.21613913
Ne       1.66487278       0.75108708       0.79389828     -89.40193983      13.44469833     -39.02567633      -2.48120055      -0.71592724      -2.74764435      -0.20575567      -1.59027379       0.39303033      -4.59194018
Ne       0.04383824       0.72639325       0.82869425     -20.69607093      18.12233012     -22.46428156      -0.20168340      -0.14388707      -0.37992727       0.12601018      -0.38661201       0.13046511      -7.10810599
Ne       0.77011401       1.59050062       0.73844523      22.45112252     -28.03655892       4.60069030      -0.46046234      -0.53715363       0.24619314      -0.08390512       0.00451575       0.80048458      -7.11279413
Ne       0.73381879       0.82339186       1.57007489      41.45145191     -17.00446856     -11.70508803      -0.82176499      -0.41743699      -0.91111001      -0.19138254      -0.01345745       0.32261583      -6.51780803
Ne       1.55555385       1.57563044       1.57109331      -8.47721547      -6.35544662       0.39896200       0.05996189      -0.08924820      -0.08330537       0.23901554       0.03415689       0.06811801      -7.44172467
