8
Lattice="0.0 1.5810000000000002 1.5810000000000002 1.5810000000000002 0.0 1.5810000000000002 1.5810000000000002 1.5810000000000002 0.0" Properties=species:S:1:pos:R:3:forces:R:3:stresses:R:6:energies:R:1 energy=-61.951811157297996 stress="3.262176532346114 -0.08248892850436806 -0.08248892850436801 -0.08248892850436806 3.2621765323461145 -0.08248892850436801 -0.08248892850436801 -0.08248892850436801 3.262176532346114" free_energy=-61.951811157297996 pbc="T T T"
Ne       0.00000000       0.00000000       0.00000000      -3.69541298      -3.69541298      -3.69541298       0.42881740       0.42881740       0.42881740      -0.02097940      -0.02097940      -0.02097940      -7.76944966
Ne       0.77500000       0.77500000       0.00000000       2.00020598       2.00020598      -7.69461053       0.40718928       0.40718928       0.38789230       0.00011693       0.00011693      -0.02049892      -7.73548531
Ne       0.77500000       0.00000000       0.77500000       2.00020598      -7.69461053       2.00020598       0.40718928       0.38789230       0.40718928       0.00011693      -0.02049892       0.00011693      -7.73548531
Ne       1.55000000       0.77500000       0.77500000       7.69461053      -2.00020598      -2.00020598       0.38789230       0.40718928       0.40718928      -0.02049892       0.00011693       0.00011693      -7.73548531
Ne       0.00000000       0.77500000       0.77500000      -7.69461053       2.00020598       2.00020598       0.38789230       0.40718928       0.40718928      -0.02049892       0.00011693       0.00011693      -7.73548531
Ne       0.77500000       1.55000000       0.77500000      -2.00020598       7.69461053      -2.00020598       0.40718928       0.38789230       0.40718928       0.00011693      -0.02049892       0.00011693      -7.73548531
Ne       0.77500000       0.77500000       1.55000000      -2.00020598      -2.00020598       7.69461053       0.40718928       0.40718928       0.38789230       0.00011693       0.00011693      -0.02049892      -7.73548531
Ne       1.55000000       1.55000000       1.55000000       3.69541298       3.69541298       3.69541298       0.42881740       0.42881740       0.42881740      -0.02097940      -0.02097940      -0.02097940      -7.76944966
