27
Lattice="0.0 2.34825 2.34825 2.34825 0.0 2.34825 2.34825 2.34825 0.0" Properties=species:S:1:pos:R:3:forces:R:3:stresses:R:6:energies:R:1 energy=-195.04132253601514 stress="-1.2813967570282525 -0.21444794434508305 -0.4175086269849985 -0.21444794434508305 -1.754473145126479 0.3674559554279101 -0.4175086269849985 0.3674559554279101 -1.8518500669461535" free_energy=-195.04132253601514 pbc="T T T"
Ne      -0.02849563       0.03015066      -0.00178012       6.15320409      -3.58418623      -7.53272358      -0.02597256      -0.00219535       0.08944172      -0.09468348      -0.09389501       0.05630981      -7.46035289
Ne       0.79307249       0.82880407       0.02129352       4.14700340      -4.90857758     -12.02373121       0.11313437       0.17864904       0.15001473      -0.01813488       0.06279008      -0.01338288      -7.75500935
Ne       1.60400752       1.58444845       0.05914743       1.38620321      -9.19437490     -16.94691478       0.10365464       0.09823317       0.11157235      -0.06214580       0.04983222      -0.07534505      -7.34990964
Ne       0.73318491      -0.03155956       0.72453576       3.91617635      15.78059405      12.96363073       0.04345876      -0.09114460      -0.08775602      -0.07777250      -0.04508853      -0.00515022      -7.36402869
Ne       1.57251387       0.76526695       0.81154963      -0.15117313       4.80253835     -18.62095566       0.05762429       0.05839636      -0.05210482       0.11916326      -0.02020948      -0.03024906      -7.48371684
Ne       2.33769404       1.55509213       0.86101532     -24.53410580      19.28258694     -49.15274906      -0.34784188      -0.24866924      -0.41629934       0.26828887      -0.32077107      -0.04410566      -6.11170925
Ne       1.57425155      -0.00107087       1.51063357      -2.55644674     -12.71450751      11.36592313       0.06598817      -0.01720482       0.03841588       0.06443593       0.04997365       0.11394539      -7.51155244
Ne       2.37262821       0.81311322       1.50651274     -12.01796477     -33.33809035      40.04914276      -0.14630688      -0.25854294      -0.24577275       0.28480538       0.08129725      -0.05742065      -6.67766925
Ne       3.09419155       1.55951431       1.48443626      36.18399121       5.14368622      30.54844513      -0.31047715      -0.02290988      -0.12675729      -0.00692648      -0.28768736      -0.08412687      -6.76324145
Ne      -0.01112538       0.83096954       0.71039568       0.06584396      -7.52898727      20.94670153       0.06481092       0.06273170      -0.02016472       0.04571408       0.04720827       0.03575168      -7.40733306
Ne       0.79463487       1.62570969       0.75016081      -4.08924987     -26.08219708       6.47681207      -0.16842596      -0.17301130      -0.09874066      -0.06810546       0.09020053      -0.05712382      -7.09597684
Ne       1.53184990       2.33369807       0.79557315      20.56718294      -0.49368112     -14.70533187      -0.07170138      -0.28042930      -0.18261531      -0.28827130       0.13231377      -0.09650397      -6.90465141
Ne       0.79088965       0.71448620       1.51943864      -8.47663761      11.57616025      -1.39468924      -0.02273507       0.14781378       0.03439138       0.00591783       0.13082603       0.03930204      -7.52894425
Ne       1.55405079       1.53730936       1.59553332     -10.20534582      -1.20090002      -4.81808750       0.01399058       0.02051579       0.01411198      -0.03161938       0.00907292      -0.00682958      -7.84543691
Ne       2.31211505       2.31019536       1.62398450      -5.05597838       3.38470816     -35.18417664      -0.08967827      -0.26601543      -0.28379031      -0.11841306      -0.09226555      -0.02316130      -6.76581714
Ne       1.54673394       0.73578903       2.32490444      -8.48984338       6.41874271       0.77442806       0.07917121       0.05766745       0.10432237       0.01202491      -0.08234192       0.08218326      -7.81352274
Ne       2.31570297       1.57843899       2.34312634       7.13820125     -14.33353340      -4.83699829      -0.06349138      -0.24910840      -0.22323959       0.20328796      -0.01470119       0.01215863      -7.17151665
Ne       3.08669297       2.30962169       2.30378690      28.23302823      -5.84308398       4.43514122      -0.17587687      -0.17376979      -0.05142018       0.11780212      -0.11812729       0.11891626      -7.14344459
Ne       0.05401224       1.63060883       1.54769870     -15.12059852     -26.95150746       8.28425091       0.02580074      -0.02959912      -0.03562241       0.13603971      -0.02182007      -0.08837073      -7.01044697
Ne       0.79758617       2.33938129       1.52952140      -5.79957682       4.34527836      21.77341719      -0.19153132      -0.18921842      -0.06811812       0.03131261       0.07460611      -0.22934126      -7.09126998
Ne       1.52907343       3.08074514       1.47303362      13.91667468      25.22362577      23.74040744       0.04209931      -0.06623603       0.01203674      -0.17907497      -0.06473975      -0.07401312      -6.93033677
Ne       0.74470187       1.56813924       2.36189377      -2.50014279     -12.39195855      -9.50547892       0.02469620       0.03688550      -0.01984384      -0.11448845      -0.13048568      -0.05527222      -7.50962705
Ne       1.54170601       2.30996320       2.35059536      -4.17989534      21.08474923      -4.72273302      -0.01642261      -0.04648430      -0.06638131       0.09337245       0.09075797       0.02910962      -7.43862745
Ne       2.40714773       3.06286659       2.29401360     -22.38781056      28.87699721      14.79108263       0.00376329      -0.15439977       0.00757465      -0.17799696      -0.01028457       0.11876898      -6.85266833
Ne       1.53251417       1.57191673       3.06583428       0.82950030     -12.96509636      17.41574462      -0.03087004      -0.02796068      -0.07796283       0.12049764       0.02046834       0.03647512      -7.40842791
Ne       2.34362632       2.29616001       3.12249047      -5.65718257      20.01541666     -10.32003366      -0.10045082      -0.14417700      -0.15168874       0.08331177       0.03366685       0.04687199      -7.34183304
Ne       3.08740568       3.08280412       3.13259982       8.68494247       5.59559791     -23.80052399      -0.15780705       0.02571045      -0.20545362       0.01911414       0.01189486       0.03615568      -7.30425168
