8
Lattice="0.0 1.5965 1.5965 1.5965 0.0 1.5965 1.5965 1.5965 0.0" Properties=species:S:1:pos:R:3:forces:R:3:stresses:R:6:energies:R:1 energy=-60.52106121554528 stress="3.8311124207160154 -0.1614610459556486 -0.16146104595564853 -0.1614610459556486 3.8311124207160145 -0.16146104595564847 -0.16146104595564853 -0.16146104595564847 3.8311124207160145" free_energy=-60.52106121554528 pbc="T T T"
Ne       0.00000000       0.00000000       0.00000000      -4.65144100      -4.65144100      -4.65144100       0.52038628       0.52038628       0.52038628      -0.04109902      -0.04109902      -0.04109902      -7.61188587
Ne       0.77500000       0.77500000       0.00000000       2.47841443       2.47841443      -9.60442580       0.47705176       0.47705176       0.44106641      -0.00025350      -0.00025350      -0.03912451      -7.54954825
Ne       0.77500000       0.00000000       0.77500000       2.47841443      -9.60442580       2.47841443       0.47705176       0.44106641       0.47705176      -0.00025350      -0.03912451      -0.00025350      -7.54954825
Ne       1.55000000       0.77500000       0.77500000       9.60442580      -2.47841443      -2.47841443       0.44106641       0.47705176       0.47705176      -0.03912451      -0.00025350      -0.00025350      -7.54954825
Ne       0.00000000       0.77500000       0.77500000      -9.60442580       2.47841443       2.47841443       0.44106641       0.47705176       0.47705176      -0.03912451      -0.00025350      -0.00025350      -7.54954825
Ne       0.77500000       1.55000000       0.77500000      -2.47841443       9.60442580      -2.47841443       0.47705176       0.44106641       0.47705176      -0.00025350      -0.03912451      -0.00025350      -7.54954825
Ne       0.77500000       0.77500000       1.55000000      -2.47841443      -2.47841443       9.60442580       0.47705176       0.47705176       0.44106641      -0.00025350      -0.00025350      -0.03912451      -7.54954825
Ne       1.55000000       1.55000000       1.55000000       4.65144100       4.65144100       4.65144100       0.52038628       0.52038628       0.52038628      -0.04109902      -0.04109902      -0.04109902      -7.61188587
