27
Lattice="0.0 2.34825 2.34825 2.34825 0.0 2.34825 2.34825 2.34825 0.0" Properties=species:S:1:pos:R:3:forces:R:3:stresses:R:6:energies:R:1 energy=-150.38094938681377 stress="-7.679329500526677 -2.9154302140085795 0.5338087895460516 -2.9154302140085795 -12.790052588079925 -5.038285248678012 0.5338087895460516 -5.038285248678012 -10.445201003663165" free_energy=-150.38094938681377 pbc="T T T"
Ne       0.09308035       0.00475116       0.01043859     -74.72514123     -33.81154437       3.36979502      -0.62022470      -0.70274454      -0.02769136      -0.06190713       0.01953975      -0.49873962      -5.10669054
Ne       0.77065981       0.65474024       0.00868067      49.08330191      65.61004670     -11.20139077      -0.77367309      -0.62131839      -0.31080754       0.13056365      -0.05300202      -0.58421047      -5.36102356
Ne       1.45992988       1.56266657      -0.03349230       3.02208003      -5.34775722      17.52066062      -0.03261821       0.14049931      -0.07816400       0.03973774      -0.00776150       0.03684975      -7.06441165
Ne       0.84007174      -0.01117735       0.77587968     -31.99916965     -23.10849014       6.22626130      -0.40329984      -0.33772200      -0.75270449      -0.11104237      -0.13313799      -0.00872307      -5.77397084
Ne       1.48546583       0.81353512       0.76417980       8.07129192       0.49102290      11.63824945      -0.17855974      -0.02544553      -0.24466678      -0.11583475       0.21163055      -0.04263885      -6.92295580
Ne       2.36221802       1.59865846       0.82167615     -14.92683001      -6.79108142      -2.88348228       0.00697896       0.17505881      -0.06542084      -0.00391174       0.11414182       0.02760560      -7.46511789
Ne       1.53575062      -0.11351474       1.47967269      15.29228744      12.21673569      24.13239426      -0.09257071       0.06809839      -0.14270173       0.03413570      -0.21103585       0.12049686      -6.60325156
Ne       2.37517242       0.83555640       1.62758596     -32.32440291    -248.29498003    -188.87202639      -0.35436540      -2.81049345      -1.80792255      -2.16451071       0.09953734      -0.31805711       1.70554541
Ne       3.06704013       1.49109723       1.60488037      93.39698557      30.78402122     -54.12657763      -1.32775386      -0.31836524      -0.44098511      -0.00205176       0.38952382      -0.50610757      -4.17455267
Ne       0.05238422       0.77632667       0.77475138     -29.49487718     -18.02952220      -1.23878683      -0.19316712      -0.09141119       0.03420976      -0.08074216      -0.11693744      -0.11739051      -6.82012476
Ne       0.69405243       1.53750693       0.85459242       7.16495940       8.43621903     -17.94768017      -0.15247572      -0.31633978       0.07217748      -0.12723150      -0.09495942      -0.17070847      -6.87893066
Ne       1.49502437       2.29679921       0.76603345      11.45872216      -4.97577622     -14.51952171       0.14988992      -0.02997608      -0.04076285      -0.12906556       0.04107671       0.08413548      -7.26779991
Ne       0.75548439       0.66665659       1.51997779       3.39077739      17.93114835      31.75385059       0.01689152      -0.02593220      -0.19409732      -0.05931012      -0.03959870       0.01570407      -6.85894357
Ne       1.51611316       1.53113429       1.52619937       5.10101123      -5.89685725      10.67582923      -0.15284472      -0.08716747      -0.04369018      -0.02312185      -0.13821414       0.15312353      -7.31532324
Ne       2.32535599       2.26517171       1.65146586     -30.67403342      44.82620741     -63.97082939      -0.33899845      -0.66174680      -0.59678002       0.31289190      -0.38353905       0.02777255      -5.24345320
Ne       1.53101355       0.86290807       2.41281608      -7.60324359     -73.59523230     -60.72008513      -0.08006278      -0.61649352      -0.52913094      -0.65280394       0.01010720      -0.18140269      -4.92627243
Ne       2.33273468       1.47930543       2.19500945     -50.44902891     165.58515721     259.02675946      -0.81704782      -3.13206181      -2.61924826      -1.75872662       0.75265855      -0.00642427       3.45146022
Ne       3.00869123       2.30742673       2.33462930      45.24899648     -10.21036044       8.81655515      -0.39483937      -0.12567048      -0.61783758      -0.23967925      -0.27580048       0.00629048      -5.84112920
Ne      -0.04697106       1.51895587       1.71179413       6.13165954      -9.97063295     -20.15376585      -0.04249144       0.12115649       0.06916524      -0.02771192       0.03075828       0.03765760      -7.12843360
Ne       0.79151223       2.25230445       1.58523456     -26.86975179       0.10293928       2.06896590      -0.32408946      -0.39325233      -0.13399505      -0.18926851       0.16451004      -0.16809305      -6.48719069
Ne       1.49108981       2.95368702       1.55816705      20.05215688      36.87773312       1.87757944      -0.08476317      -0.11186337       0.02369287      -0.11489291       0.01628140      -0.23111647      -6.78481403
Ne       0.72654471       1.55120487       2.43059162      15.27943469     -14.99148936     -13.33701424      -0.23413205      -0.16874773      -0.09418161       0.00897156       0.00243954       0.21517664      -6.83201353
Ne       1.55317385       2.27101138       2.42030698      -9.64168549      -0.99534010     -41.77347232      -0.44857454      -0.57727169      -0.42093348       0.35493848       0.10729415      -0.19305435      -6.03609351
Ne       2.19443030       3.02696707       2.40626816      24.79039997      44.88459853     -31.07413375      -0.26239296      -0.42716487      -0.33829620       0.24115766       0.08139133      -0.11639677      -5.93463146
Ne       1.63863364       1.53042677       3.05296787       5.96777549      22.99058139      78.99389762       0.13093065      -1.08848908      -0.82823206      -0.50818169      -0.16465047      -0.04374183      -4.37304756
Ne       2.34005586       2.33901433       3.10453330     -17.11207442     -29.48490280      39.60136089      -0.42136396      -0.34770748      -0.27591150       0.31052600       0.06941380      -0.22933313      -5.93291707
Ne       3.06592793       3.01645316       3.05102506      12.36839851      34.76755596      26.11660754      -0.25371145      -0.27748055      -0.04028490      -0.10121345       0.04214159      -0.22410455      -6.40486210
