27
Lattice="0.0 2.39475 2.39475 2.39475 0.0 2.39475 2.39475 2.39475 0.0" Properties=species:S:1:pos:R:3:forces:R:3:stresses:R:6:energies:R:1 energy=-201.91753159780774 stress="3.3138180418595415 -0.24498164359966454 -0.2449816435996646 -0.24498164359966454 3.3138180418595415 -0.2449816435996645 -0.2449816435996646 -0.2449816435996645 3.313818041859542" free_energy=-201.91753159780774 pbc="T T T"
Ne       0.00000000       0.00000000       0.00000000      -5.51173724      -5.51173724      -5.51173724       0.19928299       0.19928299       0.19928299      -0.02250233      -0.02250233      -0.02250233      -7.44723138
Ne       0.77500000       0.77500000       0.00000000      -0.59022872      -0.59022872      -9.75707822       0.12847921       0.12847921       0.13710865       0.01481690       0.01481690      -0.07095792      -7.50914885
Ne       1.55000000       1.55000000       0.00000000       2.74029446       2.74029446     -10.98136299       0.17944281       0.17944281       0.16009325      -0.00156802      -0.00156802      -0.02216321      -7.34721155
Ne       0.77500000       0.00000000       0.77500000      -0.59022872      -9.75707822      -0.59022872       0.12847921       0.13710865       0.12847921       0.01481690      -0.07095792       0.01481690      -7.50914885
Ne       1.55000000       0.77500000       0.77500000       4.24194768      -4.83325104      -4.83325104       0.05892205       0.06629162       0.06629162       0.05232673      -0.03368860      -0.03368860      -7.57860360
Ne       2.32500000       1.55000000       0.77500000       7.56954836       0.00000000      -7.56954836       0.10897389       0.13677568       0.10897389       0.01496343      -0.05013492       0.01496343      -7.45966327
Ne       1.55000000       0.00000000       1.55000000       2.74029446     -10.98136299       2.74029446       0.17944281       0.16009325       0.17944281      -0.00156802      -0.02216321      -0.00156802      -7.34721155
Ne       2.32500000       0.77500000       1.55000000       7.56954836      -7.56954836       0.00000000       0.10897389       0.10897389       0.13677568       0.01496343       0.01496343      -0.05013492      -7.45966327
Ne       3.10000000       1.55000000       1.55000000      10.98136299      -2.74029446      -2.74029446       0.16009325       0.17944281       0.17944281      -0.02216321      -0.00156802      -0.00156802      -7.34721155
Ne       0.00000000       0.77500000       0.77500000      -9.75707822      -0.59022872      -0.59022872       0.13710865       0.12847921       0.12847921      -0.07095792       0.01481690       0.01481690      -7.50914885
Ne       0.77500000       1.55000000       0.77500000      -4.83325104       4.24194768      -4.83325104       0.06629162       0.05892205       0.06629162      -0.03368860       0.05232673      -0.03368860      -7.57860360
Ne       1.55000000       2.32500000       0.77500000       0.00000000       7.56954836      -7.56954836       0.13677568       0.10897389       0.10897389      -0.05013492       0.01496343       0.01496343      -7.45966327
Ne       0.77500000       0.77500000       1.55000000      -4.83325104      -4.83325104       4.24194768       0.06629162       0.06629162       0.05892205      -0.03368860      -0.03368860       0.05232673      -7.57860360
Ne       1.55000000       1.55000000       1.55000000       0.00000000       0.00000000       0.00000000      -0.00329736      -0.00329736      -0.00329736       0.00378676       0.00378676       0.00378676      -7.65530526
Ne       2.32500000       2.32500000       1.55000000       4.83325104       4.83325104      -4.24194768       0.06629162       0.06629162       0.05892205      -0.03368860      -0.03368860       0.05232673      -7.57860360
Ne       1.55000000       0.77500000       2.32500000       0.00000000      -7.56954836       7.56954836       0.13677568       0.10897389       0.10897389      -0.05013492       0.01496343       0.01496343      -7.45966327
Ne       2.32500000       1.55000000       2.32500000       4.83325104      -4.24194768       4.83325104       0.06629162       0.05892205       0.06629162      -0.03368860       0.05232673      -0.03368860      -7.57860360
Ne       3.10000000       2.32500000       2.32500000       9.75707822       0.59022872       0.59022872       0.13710865       0.12847921       0.12847921      -0.07095792       0.01481690       0.01481690      -7.50914885
Ne       0.00000000       1.55000000       1.55000000     -10.98136299       2.74029446       2.74029446       0.16009325       0.17944281       0.17944281      -0.02216321      -0.00156802      -0.00156802      -7.34721155
Ne       0.77500000       2.32500000       1.55000000      -7.56954836       7.56954836       0.00000000       0.10897389       0.10897389       0.13677568       0.01496343       0.01496343      -0.05013492      -7.45966327
Ne       1.55000000       3.10000000       1.55000000      -2.74029446      10.98136299      -2.74029446       0.17944281       0.16009325       0.17944281      -0.00156802      -0.02216321      -0.00156802      -7.34721155
Ne       0.77500000       1.55000000       2.32500000      -7.56954836       0.00000000       7.56954836       0.10897389       0.13677568       0.10897389       0.01496343      -0.05013492       0.01496343      -7.45966327
Ne       1.55000000       2.32500000       2.32500000      -4.24194768       4.83325104       4.83325104       0.05892205       0.06629162       0.06629162       0.05232673      -0.03368860      -0.03368860      -7.57860360
Ne       2.32500000       3.10000000       2.32500000       0.59022872       9.75707822       0.59022872       0.12847921       0.13710865       0.12847921       0.01481690      -0.07095792       0.01481690      -7.50914885
Ne       1.55000000       1.55000000       3.10000000      -2.74029446      -2.74029446      10.98136299       0.17944281       0.17944281       0.16009325      -0.00156802      -0.00156802      -0.02216321      -7.34721155
Ne       2.32500000       2.32500000       3.10000000       0.59022872       0.59022872       9.75707822       0.12847921       0.12847921       0.13710865       0.01481690       0.01481690      -0.07095792      -7.50914885
Ne       3.10000000       3.10000000       3.10000000       5.51173724       5.51173724       5.51173724       0.19928299       0.19928299       0.19928299      -0.02250233      -0.02250233      -0.02250233      -7.44723138
