8
Lattice="0.0 1.5965 1.5965 1.5965 0.0 1.5965 1.5965 1.5965 0.0" Properties=species:S:1:pos:R:3:forces:R:3:stresses:R:6:energies:R:1 energy=-50.58486576156349 stress="-1.2493584838788883 -1.465510170758471 -1.1490242841735347 -1.465510170758471 -3.19134727814371 -2.359538334672239 -1.1490242841735347 -2.359538334672239 -3.9952160976085067" free_energy=-50.58486576156349 pbc="T T T"
Ne       0.01657595      -0.11127768       0.03743407      -2.62436727      47.25310141     -21.77290558      -0.66078035      -0.79804861      -0.55464217       0.58325215       0.14366152      -0.21104168      -5.85155788
Ne       0.84371868       0.83723143       0.11319834     -32.91318574     -25.82035972     -27.41649211      -0.61701883      -0.33355584      -0.33952016      -0.32812484      -0.49999258      -0.54749709      -6.20314938
Ne       0.76829810      -0.02172608       0.78392050      14.31111270      -1.87264384      -4.75842757       0.09079759       0.18994134       0.13078542      -0.15888531       0.09064749      -0.02358071      -7.06968457
Ne       1.52373301       0.90527542       0.84413862      15.43728358     -53.65740830      -1.68895087      -0.44084705      -1.20571545      -2.59463429      -0.69921060      -0.52681907      -0.52693950      -4.76791984
Ne      -0.10912874       0.76671704       0.80739038       1.06953183       0.65575797     -14.38268576       0.38543601       0.39023225       0.38561277       0.09145860      -0.20766489       0.07791040      -7.35671974
Ne       0.66848306       1.62889259       0.74659312       3.28624159      10.67213726      16.70846948       0.48200668       0.17412676       0.05663779      -0.36335902      -0.12565906       0.04139591      -7.10418830
Ne       0.70946621       0.75999835       1.49106234      19.52155748       0.40180855      13.86341321      -0.54336893      -0.45532558       0.25093993      -0.24205865       0.22355819       0.19318063      -6.57328089
Ne       1.61187615       1.57948003       1.52320120     -18.08817416      22.36760667      39.44757920       0.05441639      -1.15300214      -1.33039538      -1.24261065      -0.24675588      -0.46893813      -5.65836518
