8
Lattice="0.0 1.5035 1.5035 1.5035 0.0 1.5035 1.5035 1.5035 0.0" Properties=species:S:1:pos:R:3:forces:R:3:stresses:R:6:energies:R:1 energy=-58.197970914805424 stress="-10.840950003193258 -0.5022097597937064 -0.5022097597937069 -0.5022097597937064 -10.840950003193258 -0.5022097597937064 -0.5022097597937069 -0.5022097597937064 -10.840950003193258" free_energy=-58.197970914805424 pbc="T T T"
Ne       0.00000000       0.00000000       0.00000000      14.31804113      14.31804113      14.31804113      -1.23156144      -1.23156144      -1.23156144      -0.12677750      -0.12677750      -0.12677750      -7.43042141
Ne       0.77500000       0.77500000       0.00000000      -8.18982619      -8.18982619      30.69246433      -1.35601527      -1.35601527      -1.47688302      -0.00038434      -0.00038434      -0.12355870      -7.22285468
Ne       0.77500000       0.00000000       0.77500000      -8.18982619      30.69246433      -8.18982619      -1.35601527      -1.47688302      -1.35601527      -0.00038434      -0.12355870      -0.00038434      -7.22285468
Ne       1.55000000       0.77500000       0.77500000     -30.69246433       8.18982619       8.18982619      -1.47688302      -1.35601527      -1.35601527      -0.12355870      -0.00038434      -0.00038434      -7.22285468
Ne       0.00000000       0.77500000       0.77500000      30.69246433      -8.18982619      -8.18982619      -1.47688302      -1.35601527      -1.35601527      -0.12355870      -0.00038434      -0.00038434      -7.22285468
Ne       0.77500000       1.55000000       0.77500000       8.18982619     -30.69246433       8.18982619      -1.35601527      -1.47688302      -1.35601527      -0.00038434      -0.12355870      -0.00038434      -7.22285468
Ne       0.77500000       0.77500000       1.55000000       8.18982619       8.18982619     -30.69246433      -1.35601527      -1.35601527      -1.47688302      -0.00038434      -0.00038434      -0.12355870      -7.22285468
Ne       1.55000000       1.55000000       1.55000000     -14.31804113     -14.31804113     -14.31804113      -1.23156144      -1.23156144      -1.23156144      -0.12677750      -0.12677750      -0.12677750      -7.43042141
