27
Lattice="0.0 2.39475 2.39475 2.39475 0.0 2.39475 2.39475 2.39475 0.0" Properties=species:S:1:pos:R:3:forces:R:3:stresses:R:6:energies:R:1 energy=-186.56418481728767 stress="0.28545841205401123 -0.5629979316461512 0.12231697668969638 -0.5629979316461512 0.2797035264624761 -0.8816411663792753 0.12231697668969638 -0.8816411663792753 0.0009191475599901009" free_energy=-186.56418481728767 pbc="T T T"
Ne       0.00317714       0.08760809      -0.00539569      -1.62524656     -17.41644594      -0.23106187       0.01549602       0.11583787       0.12954106       0.01787075      -0.05964637      -0.01273574      -7.01254106
Ne       0.78142072       0.79270791       0.02493566       1.93426691       5.09702143     -14.31966714       0.06528828       0.06927995       0.13001841       0.01662125      -0.04538577      -0.11453659      -7.22617419
Ne       1.59035614       1.56576995      -0.01345547       5.42546371       4.10949645     -12.32476686       0.10539219       0.17460781       0.11681202      -0.00506838       0.10408725       0.04057617      -7.22929836
Ne       0.74916374       0.03221831       0.79165771       2.72658532     -18.75850510      -1.28512193       0.12236633      -0.01012701       0.09494026      -0.03271091      -0.04173115      -0.00160082      -7.10550718
Ne       1.57298479       0.73093315       0.73520973       0.23831663       3.03301477       2.74451470      -0.13385436       0.15545179      -0.04408609       0.05654121       0.01205918       0.01430697      -7.25457390
Ne       2.37882078       1.57327471       0.79648955      -8.60974347      -0.02382867     -13.46776442       0.12647919       0.25740385       0.11424510       0.02248733      -0.15124352      -0.00002837      -7.16122259
Ne       1.63268187      -0.01161296       1.57405460     -20.29575591     -27.78454953      -8.84796910       0.05610832      -0.15123751       0.11591416      -0.09345103       0.01163925      -0.18289628      -6.66621445
Ne       2.30241893       0.72828193       1.50911991      23.98073958      22.43559635       2.97980328      -0.03056448      -0.09186215       0.05597631       0.05062669      -0.01492560      -0.22222776      -6.84479956
Ne       3.13534078       1.52865022       1.49598271      10.94872066      -1.88000530      13.35346202       0.10939689       0.27510606       0.12328368       0.01788126      -0.09196026       0.01736929      -7.10050725
Ne       0.00920376       0.81079419       0.82983040     -15.29463998     -15.94655902     -28.33293522       0.01511183      -0.08855026      -0.14116540      -0.30536678      -0.06655635       0.09190038      -6.50201986
Ne       0.87354806       1.59511605       0.74223143     -22.24129105      -7.15548564       5.64235719       0.00169152      -0.09508837      -0.09343891       0.01809504       0.06076186      -0.11227659      -7.04417305
Ne       1.55269857       2.36808865       0.75285820      26.47246602      -4.53457173       1.71326413      -0.07913733      -0.16934203       0.17276791      -0.01946024       0.00646564       0.08279191      -6.95664127
Ne       0.80210469       0.81665975       1.47994313       4.67180811      -9.83295883      15.29660863      -0.01522679      -0.06078737      -0.17633739      -0.20065440      -0.13312041      -0.01800256      -6.72573972
Ne       1.55474678       1.59554805       1.57708341      24.47126433     -18.47995418     -40.71794484      -0.32407066      -0.07920492      -0.39083209      -0.18640293       0.20886187      -0.08526741      -6.29155560
Ne       2.33724541       2.32438911       1.63271954       5.30741838      12.03389120     -23.70615744       0.01261838      -0.09371205      -0.04442416       0.07292632      -0.04135890       0.01713957      -6.96189472
Ne       1.54818927       0.71087500       2.30628993      -1.58514960      14.01925941       8.36437386       0.01923070       0.02616692       0.00450912      -0.09550601       0.09112799       0.13061586      -7.11987489
Ne       2.33094631       1.56411483       2.31497397       3.46359800     -18.96041852      15.94271517       0.11914344       0.02646466       0.07109982       0.15172230      -0.02700295      -0.01832797      -7.25711283
Ne       3.10344512       2.31819341       2.35902672      23.38970211      -0.56568628     -20.59845887      -0.05729120       0.08332207      -0.13398268      -0.07238912       0.07221470      -0.02215057      -6.79477510
Ne      -0.04475067       1.54704543       1.49347205      -0.78111026      20.33456648      19.80918642       0.18060436      -0.07529193       0.03276221      -0.26785376      -0.01335859       0.03742221      -6.77444328
Ne       0.73020424       2.33989840       1.53227703      -2.01460483       7.49814008      -0.20706096       0.13053657       0.10347869       0.07115355       0.06385641      -0.04398188       0.01215098      -7.58155034
Ne       1.58880301       3.10228798       1.57137859     -14.37634483       6.95102062      -7.06011334       0.07482232       0.17474665       0.07240232      -0.00972896      -0.10012425       0.02378568      -7.27832203
Ne       0.82365899       1.52776287       2.23335411     -43.79177091     -12.46153776      34.55796003      -0.26879041      -0.15490555      -0.15593836      -0.06116043       0.22758751      -0.20650421      -5.72082421
Ne       1.48979496       2.27529041       2.30654450      11.62767181      39.45197721      24.48381684      -0.05199397      -0.28970014      -0.13812402      -0.15436597       0.01303172      -0.16631862      -6.50393326
Ne       2.27566234       3.11937778       2.34852505      17.53826763      12.40183824      -4.29004601       0.07337889       0.03044433      -0.12682245       0.06516615      -0.05489749       0.08542608      -6.73686728
Ne       1.52833475       1.57131533       3.11897079       2.61707957      -3.15666293       2.70007576       0.20715207       0.25229757       0.16548215       0.05476328       0.01159776       0.00542196      -7.41159157
Ne       2.40757727       2.41180348       3.08588114     -21.42942008     -21.33204609      20.23640695      -0.07681751      -0.00209023      -0.12973797       0.06336992       0.15879962      -0.02143658      -6.71360362
Ne       3.22120865       3.06385844       3.09651275     -12.76829129      30.92339330       7.56452303      -0.11161219      -0.10300517       0.10490057      -0.04945014       0.02937612       0.06240509      -6.58842363
