8
Lattice="0.0 1.6275000000000002 1.6275000000000002 1.6275000000000002 0.0 1.6275000000000002 1.6275000000000002 1.6275000000000002 0.0" Properties=species:S:1:pos:R:3:forces:R:3:stresses:R:6:energies:R:1 energy=-56.85324451371652 stress="4.018038634423817 -0.807875584525197 0.10348882889608327 -0.807875584525197 4.110337383586234 -0.1475233588054887 0.10348882889608327 -0.1475233588054887 4.490122328518465" free_energy=-56.85324451371652 pbc="T T T"
Ne       0.00442007      -0.00680930      -0.01155497      -5.97839189      -8.10367266      -2.67226862       0.62502391       0.57747828       0.63058102      -0.06579567      -0.03080386      -0.09500276      -7.19884517
Ne       0.76691937       0.76293421      -0.00487705       3.03652591       6.24045296     -11.70497057       0.48546263       0.51253101       0.45332409       0.07230870      -0.02253261      -0.09117691      -7.06707326
Ne       0.79570687       0.01161507       0.78004827      -5.91048805     -21.26087680       2.26903994       0.23523445       0.10634401       0.52173499       0.00503360      -0.02865147      -0.28946826      -6.79763832
Ne       1.52074908       0.74403317       0.78030545      19.57217353      11.49110721      -2.53679251       0.15523098       0.34159551       0.47585648       0.00144878       0.04881273      -0.35882346      -6.82565804
Ne      -0.00001792       0.75468015       0.77723979     -10.00712390       5.68427453       2.93361525       0.52101248       0.55326385       0.53971978      -0.05552693       0.03640659       0.05523720      -7.14323035
Ne       0.75116096       1.58111088       0.75633400       2.12817857       4.20405734       1.09625577       0.71568191       0.66204570       0.70120879      -0.02019400      -0.00276471      -0.01652445      -7.31932145
Ne       0.78553068       0.77200071       1.56045571      -3.69298069       2.34022330      10.87454909       0.55852502       0.64277972       0.44964583      -0.09066785       0.10695688      -0.00331318      -7.14615732
Ne       1.57684310       1.58117043       1.57511988       0.85210653      -0.59556589      -0.25942835       0.72186725       0.71429931       0.71805136       0.00587001      -0.00393473      -0.00880378      -7.35532062
