27
Lattice="0.0 2.39475 2.39475 2.39475 0.0 2.39475 2.39475 2.39475 0.0" Properties=species:S:1:pos:R:3:forces:R:3:stresses:R:6:energies:R:1 energy=-168.70528288391097 stress="-4.316546866302245 -3.2102890994411113 -0.7258407297288074 -3.2102890994411113 -3.286990210188578 -0.6946638052442892 -0.7258407297288074 -0.6946638052442892 -1.8280186060826522" free_energy=-168.70528288391097 pbc="T T T"
Ne       0.01326020      -0.02042790      -0.03466491     -29.82406185       6.17444110      10.06232860      -0.15134872       0.01940221      -0.18140825       0.02362024       0.16928006      -0.04642776      -6.67854312
Ne       0.75075811       0.73880263      -0.01463114      12.19202688       4.16278520       8.97857397       0.10738395       0.15822558       0.09219741       0.04375424      -0.05692659      -0.07477834      -7.41058449
Ne       1.61212062       1.58484520       0.01514482     -24.44332921     -15.55409122     -64.76651257      -0.42800634       0.15497413      -0.61804186      -0.15947018      -0.23092033      -0.00544621      -5.43715704
Ne       0.68724724      -0.09290048       0.79091636       9.10277750      15.62284027       7.50478993       0.00135055       0.04961860       0.04520899      -0.09289902       0.00087925       0.03277564      -7.06913650
Ne       1.54994623       0.71404046       0.78171938      13.23237498       2.22047449     -14.63045717       0.09826329       0.24760695       0.07329010       0.04381051       0.14556737       0.04172018      -7.27015800
Ne       2.25348288       1.64333263       0.71900200      65.38133843     -35.64365728      36.36834829      -0.67994404      -0.16627058      -0.44058044      -0.03390168      -0.37392446       0.19166490      -4.75887450
Ne       1.58159205      -0.00899787       1.58136714      -7.93853145       2.77573769       2.20392821       0.18769341       0.07914361       0.18592810       0.01994377       0.00235850       0.13738619      -7.26218616
Ne       2.40552929       0.86851128       1.62535964     -31.27211789     -46.36063883     -25.43814147      -0.19541502      -0.26171036      -0.05178743      -0.24901235      -0.00506130      -0.26326227      -5.84430380
Ne       3.15451620       1.49954592       1.61033511      31.44597593      24.91702332     -10.39216244      -0.16060407      -0.10011921       0.16906850       0.02117034       0.07658735      -0.28947464      -6.47895442
Ne      -0.06142825       0.78590643       0.74999914      -1.00686634       0.74288598       0.69242841       0.23412737       0.31003598       0.22889456      -0.03707992       0.01390675       0.01841319      -7.46893857
Ne       0.89370452       1.66504668       0.71313958    -145.94765262    -135.45177648       9.68721149      -1.42568543      -1.28974547      -0.22351520       0.00990370      -0.04593343      -1.35126183      -1.60766173
Ne       1.52100129       2.28629519       0.77862089      97.41573421     170.60984036       7.30102859      -1.55915541      -1.75537425      -0.06871273      -0.14586484      -0.13391266      -1.04982598      -1.09200206
Ne       0.80787583       0.82570891       1.47756912     -17.23936772      -0.72781663      12.73186367       0.06841732       0.26475020       0.11455384      -0.02489667       0.11220474       0.01081813      -7.01869414
Ne       1.57249042       1.60654087       1.52892416      -6.45860342     -20.74559579      16.61136804      -0.08895122      -0.09678483      -0.24311045       0.11979774      -0.06232031      -0.06813136      -6.99927951
Ne       2.35258410       2.32208900       1.57492891       6.31214072      -1.07980165     -31.22127533      -0.03224391      -0.24630302      -0.33125129      -0.13720274       0.08434829      -0.02550183      -6.52760873
Ne       1.50788743       0.78612787       2.35310099       3.23274677      -3.21861382       2.17173533       0.22755689       0.24018258       0.21883887      -0.05471718      -0.02043188       0.03914461      -7.47996360
Ne       2.32737140       1.59296843       2.29609870       2.15074100     -11.79076346      32.09669560      -0.08078493      -0.47058783      -0.32320932      -0.22702387       0.04657543       0.07694718      -6.11807071
Ne       3.09685053       2.30866329       2.34347912      14.76195681      13.45563244     -18.05295650       0.03014926      -0.09517401      -0.17431552       0.02399139      -0.04584188      -0.01044112      -6.79505067
Ne      -0.10563922       1.61901344       1.53693614       5.62787785     -18.79090852       2.12608788       0.09853561       0.04618624       0.15224107       0.02065629       0.00999550       0.03442997      -6.95093446
Ne       0.70176476       2.30438307       1.64292573      19.33119247      17.32413970     -38.04435306      -0.06789887      -0.02603417      -0.22555476       0.14880004       0.19375201      -0.02025175      -6.56812292
Ne       1.53752146       3.08549956       1.54252423     -12.18704812       5.66353471     -10.29176958       0.07667357       0.22512793       0.08524037       0.01206948      -0.11947677       0.04187761      -7.17300875
Ne       0.80865484       1.62852875       2.38189540     -20.46045503     -28.65926368      -5.29204659      -0.07299588      -0.12666834      -0.24086427       0.12827563      -0.20471662       0.02703790      -6.07898050
Ne       1.59751989       2.31357049       2.32456434     -26.14192398      12.74824555       2.08423823      -0.30619655      -0.34521313      -0.10542362       0.08782225       0.00901236      -0.15668788      -6.48000349
Ne       2.28447728       3.05452507       2.24986484      21.40646111      36.43746152      26.04497262      -0.06155711      -0.16687070      -0.06961171      -0.19851928      -0.11766503      -0.11787995      -6.07806619
Ne       1.50409362       1.62964545       3.11476302      11.93024820     -17.92951594      22.43468582      -0.12739947       0.06814650      -0.05526199       0.06144739      -0.18950169      -0.01837560      -6.55699711
Ne       2.32907006       2.28413374       3.09271705      -2.11544763       3.07523523      11.95986098      -0.13321501      -0.10446988      -0.01947870      -0.00588107      -0.00188444      -0.23110479      -6.72877535
Ne       3.05038433       3.01105854       3.12713437      11.51181241      20.02216576       7.06952906       0.12470390       0.10093508       0.17864714      -0.09325802       0.01820905      -0.13365328      -6.77322637
