8
Lattice="0.0 1.5655000000000001 1.5655000000000001 1.5655000000000001 0.0 1.5655000000000001 1.5655000000000001 1.5655000000000001 0.0" Properties=species:S:1:pos:R:3:forces:R:3:stresses:R:6:energies:R:1 energy=-63.009945495857195 stress="2.166993155843914 -0.02504238908812378 -0.025042389088123822 -0.02504238908812378 2.166993155843914 -0.025042389088123646 -0.025042389088123822 -0.025042389088123646 2.166993155843914" free_energy=-63.009945495857195 pbc="T T T"
Ne       0.00000000       0.00000000       0.00000000      -2.19035764      -2.19035764      -2.19035764       0.27720444       0.27720444       0.27720444      -0.00635825      -0.00635825      -0.00635825      -7.88403315
Ne       0.77500000       0.77500000       0.00000000       1.20882829       1.20882829      -4.60785288       0.27072929       0.27072929       0.26483356       0.00002136       0.00002136      -0.00620566      -7.87364653
Ne       0.77500000       0.00000000       0.77500000       1.20882829      -4.60785288       1.20882829       0.27072929       0.26483356       0.27072929       0.00002136      -0.00620566       0.00002136      -7.87364653
Ne       1.55000000       0.77500000       0.77500000       4.60785288      -1.20882829      -1.20882829       0.26483356       0.27072929       0.27072929      -0.00620566       0.00002136       0.00002136      -7.87364653
Ne       0.00000000       0.77500000       0.77500000      -4.60785288       1.20882829       1.20882829       0.26483356       0.27072929       0.27072929      -0.00620566       0.00002136       0.00002136      -7.87364653
Ne       0.77500000       1.55000000       0.77500000      -1.20882829       4.60785288      -1.20882829       0.27072929       0.26483356       0.27072929       0.00002136      -0.00620566       0.00002136      -7.87364653
Ne       0.77500000       0.77500000       1.55000000      -1.20882829      -1.20882829       4.60785288       0.27072929       0.27072929       0.26483356       0.00002136       0.00002136      -0.00620566      -7.87364653
Ne       1.55000000       1.55000000       1.55000000       2.19035764       2.19035764       2.19035764       0.27720444       0.27720444       0.27720444      -0.00635825      -0.00635825      -0.00635825      -7.88403315
