27
Lattice="0.0 2.44125 2.44125 2.44125 0.0 2.44125 2.44125 2.44125 0.0" Properties=species:S:1:pos:R:3:forces:R:3:stresses:R:6:energies:R:1 energy=-186.50146496938595 stress="2.5737944358107203 -0.4522532754065648 -0.5828077532912839 -0.4522532754065648 3.0736639226151548 -0.3023017623848998 -0.5828077532912839 -0.3023017623848998 2.7128248074559655" free_energy=-186.50146496938595 pbc="T T T"
Ne      -0.00103928      -0.00222392       0.02083594      -6.24531451      -6.59710051      -6.73185274       0.22672926       0.20339618       0.22090676      -0.04661995      -0.03345855      -0.04117965      -6.70250137
Ne       0.74986521       0.78990775      -0.03422108       3.61299910      -3.45122714      -4.79491881       0.15784989       0.15483330       0.20807343      -0.00002919       0.03981584      -0.07806447      -7.09787701
Ne       1.54588271       1.54530857       0.02256288       8.37625924       2.59818259     -18.42120994       0.07589585       0.18852298       0.06679424      -0.00005228       0.06656258      -0.03029255      -6.42420049
Ne       0.77474748      -0.01226401       0.80247377      -4.57293892      -8.04223907      -8.09145821       0.06685585       0.17656947       0.10934766      -0.01080122      -0.15163795       0.03748173      -6.90966862
Ne       1.58221984       0.76121543       0.78883847     -11.70690815      -2.79345084     -19.10386628      -0.00118172       0.03021986      -0.03886310       0.10015705      -0.13143727      -0.05836659      -6.98195865
Ne       2.31603769       1.55324685       0.78014458       9.75183688       5.58272951      -8.30859605       0.07936015       0.13134367       0.06558201       0.05837965      -0.06812247      -0.02570785      -6.94009884
Ne       1.52449088       0.00128009       1.52876287       7.94363874     -15.12846120      10.54431727       0.09870347       0.09737668       0.06602166       0.02887577      -0.09887523      -0.00614412      -6.39554755
Ne       2.30521263       0.76584554       1.51031637      18.07308658      -9.08100420      13.17001019      -0.01637421       0.06609546      -0.00046885       0.02397915      -0.10737893      -0.05319441      -6.70219888
Ne       3.07047116       1.55463606       1.56288319      14.72429790      -1.59125775      -6.24105227       0.11096168       0.17608417       0.10666253      -0.01403342       0.03426220      -0.00950352      -6.62230684
Ne       0.01704245       0.76571963       0.78894353     -11.21335527       3.47446386      -1.24871601       0.14844884       0.12863113       0.10698187      -0.08807669      -0.00998402       0.03843542      -6.91510287
Ne       0.80635764       1.57357112       0.74732086     -19.99648050      -5.03913672       5.68115990      -0.02073079       0.05118159       0.03956446      -0.03554591       0.10753034      -0.10839195      -7.03495087
Ne       1.51505332       2.33305448       0.79988966      11.38534073      11.61345086     -13.09829721       0.05153034      -0.00321433       0.04919397      -0.05805912       0.04844789      -0.07083069      -6.72967899
Ne       0.77452327       0.79405135       1.55489928      -6.61391155      -3.96246931       1.41020723       0.02905088       0.07965439       0.03576253      -0.06606802      -0.09874743       0.05013619      -7.22465452
Ne       1.55448194       1.55593362       1.55441507       0.68703852      -0.50790613       1.35477698      -0.03441426      -0.05693862      -0.02257672       0.03403500       0.00259224       0.04160794      -7.46366789
Ne       2.31653398       2.36191230       1.56840229       7.00133041      -4.70556715      -8.48033736       0.07695885       0.03433375       0.06440357      -0.07457949      -0.02754764       0.08756994      -7.23800751
Ne       1.53884168       0.76929550       2.30417467       2.51813780      -8.81710810      10.90186065       0.11282852       0.08666080       0.07773430      -0.05088353      -0.02442639       0.01379238      -6.88377770
Ne       2.33460739       1.52145245       2.31833467      -0.62872891       2.27742234      12.04187971       0.05478254       0.14990464       0.09775982      -0.00887295       0.07962857      -0.02604068      -7.24219683
Ne       3.11494617       2.33620459       2.33647418       9.51561859      -2.03273624      -2.01899779       0.15619260       0.14015424       0.13041207      -0.08658417       0.01891534       0.04056983      -7.14249899
Ne      -0.02361761       1.56529300       1.54731230      -5.83446453       2.21480306       1.93485453       0.22076880       0.21087071       0.22678651      -0.02850065      -0.01362641       0.00805828      -6.76278226
Ne       0.80149275       2.31947145       1.58359102     -16.67678621       8.23243402      -1.11214210       0.02909714       0.10702604       0.06083197       0.03047729       0.01997329      -0.01983268      -6.85386695
Ne       1.55830324       3.11495363       1.54214939      -4.63951493      13.19704354       0.66854602       0.16042454       0.11985016       0.18762722      -0.03252931      -0.02727760       0.02657342      -6.69911590
Ne       0.76687352       1.54228308       2.34501804     -10.56645649       0.21186333       5.41585619       0.10700990       0.12374638       0.09268983       0.01059683      -0.07212053       0.01687117      -6.94355787
Ne       1.54104635       2.32267832       2.34838029       2.12616077       5.37251544       9.16286440       0.09119011       0.13046522       0.09773499       0.03746750      -0.04458900      -0.05307601      -7.26535804
Ne       2.33531228       3.09484266       2.33070092      -0.79579970      14.78859885       3.95780743       0.14937290       0.10844945       0.10654640      -0.03413193      -0.07176681       0.02638997      -6.97591349
Ne       1.52190819       1.51981835       3.10868616       3.85033810       0.31042172      10.77809277       0.22144967       0.23269243       0.15775037      -0.00080057      -0.04452187       0.00534369      -6.70222791
Ne       2.38010007       2.36521586       3.15039797     -12.68175246     -13.52156495       5.39917664       0.11024901       0.09832082       0.18827485       0.04860687       0.04568802      -0.13601868      -6.93416563
Ne       3.11140875       3.08946969       3.12136446      12.60632875      15.39730020       5.23003486       0.11078461       0.10743335       0.21129045      -0.03870850      -0.02070597      -0.12843940      -6.71358251
