8
Lattice="0.0 1.6275000000000002 1.6275000000000002 1.6275000000000002 0.0 1.6275000000000002 1.6275000000000002 1.6275000000000002 0.0" Properties=species:S:1:pos:R:3:forces:R:3:stresses:R:6:energies:R:1 energy=-44.23136666622554 stress="-2.040541584974732 0.49330525601123604 -4.826357495111604 0.49330525601123604 -1.8808347406529198 2.858813706549468 -4.826357495111604 2.858813706549468 -7.112619379613318" free_energy=-44.23136666622554 pbc="T T T"
Ne      -0.00735599      -0.11706805       0.08654333      12.05320099      11.05830670     -23.53418457       0.50270817      -0.24632884       0.08726558       0.67430639       0.17112879       0.11553212      -6.43923143
Ne       0.75585399       0.73570967      -0.08018176       0.72584184      11.52928210       5.95426412       0.50999256       0.05147607       0.00734043      -0.36431026       0.30517405       0.19090012      -6.61117846
Ne       0.84850572      -0.08829057       0.82511948     -12.04664426       3.07788384       6.25216142       0.46337696       0.46661372       0.26378196       0.06726702       0.30555820      -0.02214034      -6.83771096
Ne       1.50507890       0.77730841       0.75653862       8.99806845     -25.63933287      14.11396112       0.60234278      -0.46140382      -0.00608835       0.59752859       0.17411463      -0.01925368      -6.31945088
Ne       0.04702018       0.83518541       0.69031980      15.95517701      -9.33592734      34.29945553      -0.26968465       0.29997364      -0.36009749       0.19279565      -0.46659234       0.10349184      -6.06601496
Ne       0.85947779       1.60982002       0.86017413     -71.07982577      -0.36962572     -78.26152269      -1.52494810      -0.33834808      -3.46031552       0.34557433      -2.41899950       0.69453532      -3.40781215
Ne       0.89661037       0.65591177       1.69879919     -37.67741842      -9.24359724     -18.76779823      -0.46393038      -0.77685328      -0.09026010       0.35026046      -0.45042455      -0.62108283      -5.63401626
Ne       1.42211096       1.49831411       1.57698600      83.07160016      18.92301054      59.94366331      -1.86039892      -0.87596417      -3.55424589       0.99539153      -2.44631678       0.05132270      -2.91595156
