27
Lattice="0.0 2.44125 2.44125 2.44125 0.0 2.44125 2.44125 2.44125 0.0" Properties=species:S:1:pos:R:3:forces:R:3:stresses:R:6:energies:R:1 energy=-173.57032180420592 stress="0.0914350912283461 1.3898123542443954 -0.7294481492759012 1.3898123542443954 0.09324728698086922 -0.345034403566112 -0.7294481492759012 -0.345034403566112 1.007834070962913" free_energy=-173.57032180420592 pbc="T T T"
Ne      -0.00367800      -0.05853403       0.04327167      -8.73754935      -5.15747523     -14.19154024       0.16995741       0.18853364       0.12892287      -0.03665744      -0.09708942      -0.03710208      -6.70614971
Ne       0.76542699       0.75535483      -0.04009088      -1.12871756      -2.51094618     -11.50422285       0.18541103       0.14532885       0.12444877      -0.01730518       0.01025569      -0.05692245      -7.02695040
Ne       1.58675286       1.50585472       0.02505974      10.18683503      19.41913599     -36.17311150       0.08682367      -0.03429015      -0.15593722       0.19287778       0.12009663      -0.02406398      -5.97658217
Ne       0.75253945       0.00115420       0.76576931      17.23268132     -14.67938467       7.02550807       0.04167338       0.08669239       0.11039315      -0.00665935      -0.10658175       0.12152864      -6.74831671
Ne       1.57351009       0.80509270       0.73265990      40.24925923     -63.07303443      12.53239044      -0.36050654      -0.45924526      -0.08817012       0.20269765      -0.03485085       0.45198062      -5.34302662
Ne       2.36723890       1.57991001       0.81758706       4.03952338      -4.43329401      -6.38401029       0.10342505       0.13562762       0.10554550       0.01877066      -0.07136832       0.02783724      -7.06549886
Ne       1.61080518      -0.05954412       1.62439960      -7.86954616     -17.72123879      -8.25449731       0.19203822       0.04692552       0.21063706      -0.10220814       0.02278388      -0.10159000      -6.42404930
Ne       2.26105548       0.74915706       1.56349300      17.99786382       4.79103449      -2.49574701       0.08221632       0.07459234       0.11485159       0.00904676       0.03234562      -0.11093780      -6.62159087
Ne       3.14186915       1.57516573       1.56452236       4.39027619      -5.35688478      -1.62283493       0.23414442       0.22428007       0.14678660      -0.06756554      -0.04245213      -0.00061983      -6.53522491
Ne       0.02222999       0.73145802       0.77594779     -17.80170222      12.82159080      -3.63277237       0.06279069      -0.01444781       0.05980542      -0.05837778       0.00407820       0.10343736      -6.70471196
Ne       0.87496707       1.45039878       0.76560550     -72.03747097      44.41542116     -13.05340621      -0.65712519      -0.41614014      -0.35548575      -0.03438726      -0.04051965       0.33426742      -4.62985886
Ne       1.54609746       2.28953883       0.76953147      -3.04794004      13.52522822     -19.64165736       0.07231788      -0.05826985      -0.07647859      -0.04067396      -0.01429833      -0.01968411      -6.74250994
Ne       0.77907916       0.76496282       1.54684751      -0.94925365     -17.16844075       6.75268534       0.09947737      -0.01308485      -0.07664594      -0.02411141      -0.07439234       0.00073206      -7.07792759
Ne       1.50659343       1.57379714       1.52444368      46.35983082     -19.08860021      18.18995739      -0.40748768      -0.20667527      -0.37033840       0.02570768      -0.06508927       0.16943208      -6.01412317
Ne       2.28068653       2.40924583       1.52730449      39.15652652     -30.90587058       6.10960815      -0.21884912      -0.17598667       0.04107721      -0.05174040      -0.04921605       0.33506691      -6.22656776
Ne       1.53080201       0.69807081       2.34098354       8.93802829     -10.69258285      15.80385322       0.00693972      -0.07121096       0.07292916      -0.12434695       0.04868486       0.17273357      -6.46810842
Ne       2.28307265       1.52224485       2.35481357       5.50197722       0.11558312      -1.08609609       0.19553671       0.17339880       0.18930250      -0.05901631       0.04584119      -0.01418886      -7.23607124
Ne       3.12147640       2.29569113       2.34722863       7.01093692       1.98704745      -0.49039082       0.20859808       0.16059208       0.11598955      -0.13969536       0.07632743       0.01218467      -6.98578942
Ne       0.01729157       1.54456784       1.51235576      -9.90132374      -0.23176999       2.99884628       0.17141519       0.13708278       0.24877581      -0.03856231       0.00142070      -0.03608026      -6.61435386
Ne       0.79439069       2.26368714       1.56619916     -24.96448531      25.80172454      -1.46094325      -0.18001008      -0.10850921       0.15643953       0.00639004      -0.00553263       0.11194810      -6.17773101
Ne       1.55051304       3.05073138       1.50787660     -28.99148178      39.88896815       1.37054056      -0.15733923      -0.15961284       0.16175710      -0.02155944      -0.01010201       0.30616633      -5.61668525
Ne       0.87564887       1.46843886       2.32877949     -38.93695492      14.59601517       2.82115157      -0.13850706      -0.08260707      -0.24636322      -0.03480004      -0.08908343       0.11158636      -5.76859111
Ne       1.53740707       2.34461259       2.33919905       0.24220389       3.97477657       7.90855077       0.08343792       0.11701800       0.06974488       0.05895621      -0.05825726      -0.02016288      -7.32319064
Ne       2.36302845       3.13041487       2.32546015      -5.53257660       9.64792294      -7.58782031       0.14507531       0.13384909       0.04507781       0.01907761      -0.11356528       0.03063100      -6.96288376
Ne       1.49495772       1.53913781       3.12169008      11.91225065       0.24714637      22.09550229       0.10591640       0.26461062      -0.00993023      -0.01134326      -0.14499439      -0.01520245      -6.24570869
Ne       2.34642089       2.37139992       3.09339980     -20.36230888     -21.07953272      11.65293281      -0.02740510      -0.01638771       0.14477693       0.02683295       0.02725492      -0.23955162      -6.24931292
Ne       3.05282390       3.07818804       3.11082011      27.04311788      20.86746022      12.31752364      -0.00852965       0.02118327       0.13992212      -0.03638162      -0.10114417      -0.22361368      -6.07880664
