27
Lattice="0.0 2.44125 2.44125 2.44125 0.0 2.44125 2.44125 2.44125 0.0" Properties=species:S:1:pos:R:3:forces:R:3:stresses:R:6:energies:R:1 energy=-56.76510876337346 stress="-27.375881703244243 -2.9025882821519704 -17.258701870375543 -2.9025882821519704 -8.434501033883118 -2.5549770158271046 -17.258701870375543 -2.5549770158271046 -20.38351965889378" free_energy=-56.76510876337346 pbc="T T T"
Ne       0.10633697      -0.06160268      -0.02530243     -61.67117007      -1.32694317      17.87028230      -0.28483333      -0.77289959       0.16450358      -0.04857093       0.18365771      -0.08491581      -4.38354868
Ne       0.69573517       0.68933470      -0.11509706      28.51146737      44.45503438       3.27691792      -0.17352800      -0.27892167       0.16669810       0.04856157       0.11825937      -0.39785669      -5.39207081
Ne       1.59515335       1.57365775      -0.13011234      -0.98490236       0.08330523       2.13207358       0.28301112       0.27042599       0.25280035      -0.01969656       0.03469523       0.00762448      -6.59462963
Ne       0.79256522       0.05430438       0.92614182     -56.19893119     -51.07022552     -82.14678985      -0.91712061      -0.58745723      -0.46699167      -0.26330560      -0.65801725       0.21975278      -2.77133012
Ne       1.62692307       0.78332090       0.73650677     -12.58483388      13.87616263      -2.87134571       0.09806312       0.10742064      -0.01217540       0.16058967       0.12400485      -0.02364500      -6.54173060
Ne       2.39301828       1.66627397       0.85961899     -17.55835748       7.68880127     -35.51975616      -0.04095478       0.06857728      -0.13508766       0.08854987      -0.18743562       0.03726960      -6.18999613
Ne       1.56324493       0.04120147       1.44304515      73.43854112     -15.73702096      60.16374786      -0.70029406       0.11904541      -0.30415777       0.14185199      -0.63962708       0.01398753      -4.16696042
Ne       2.37002889       0.88642839       1.54493376      -2.36628565     -18.79999443       5.68486672       0.10102766       0.04456064       0.10027693       0.10517390      -0.03916289      -0.07368439      -6.65997779
Ne       3.10973347       1.64660820       1.54983678      24.07452500      -9.45745067      16.35891526      -0.02672090       0.01650687      -0.10979869      -0.02755405      -0.25316058      -0.09410954      -5.61951253
Ne       0.13022366       0.80335942       0.85800221    -123.51399394     -10.39676865     -98.09118504      -1.06269476      -0.30138993      -0.81906750      -0.08697615      -1.00289722      -0.01904314      -1.97366711
Ne       0.74414532       1.59158544       0.90992663      26.54015135      19.97823635     -74.40915862      -0.24954246      -0.86681588      -0.54279852      -0.02007413       0.08636798      -0.21024858      -3.82810761
Ne       1.44392295       2.43931870       0.60785166       9.82166390      -4.44277408      18.66659758       0.18623979       0.18128568       0.11107739       0.02643560      -0.10366787      -0.03990102      -6.44134937
Ne       0.76461441       0.82552184       1.50307695      90.48550917       1.74896597     144.83150771      -0.79085952      -0.80241304      -1.38902858      -0.13107430      -1.00145118       0.06228702      -1.52474667
Ne       1.57325761       1.65112827       1.57320278       6.82939840    -138.99123873     -94.30263472      -0.65602430      -1.31428160      -0.95780788      -0.97908179       0.27221405       0.02214503      -1.99894014
Ne       2.16737692       2.38931247       1.63244403      82.93527907      19.77749884      -0.17764824      -0.60629561      -0.76607920       0.14439165      -0.07099498       0.08296982      -0.09603981      -4.08619130
Ne       1.55944783       0.77325173       2.32874726     -20.41834511     -21.80178634     -13.70240824       0.04527804      -0.17248840       0.08451250      -0.06195549      -0.01381375      -0.28916754      -6.20905922
Ne       2.19469977       1.51861115       2.46107782      94.01837916      21.56588220     -58.83764350      -0.78681079      -0.09873707      -0.51084895      -0.09907589       0.67416021      -0.25032432      -3.61860250
Ne       3.18490638       2.38066429       2.29012091      -6.49605519       5.61739538      -7.40552564       0.10647694       0.13601333       0.00511395      -0.14880093      -0.09400508       0.00288721      -6.58620415
Ne      -0.02663533       1.59817077       1.55870312     -72.77427221       1.91525458     -33.39391138      -0.63353785       0.10845285      -0.54981794      -0.06872834      -0.32116138      -0.02767551      -4.53459256
Ne       0.77794135       2.28188293       1.58993423    -185.79380490      93.55059060    -219.39760810      -1.97703633      -0.80733449      -2.88176631       0.17238382      -1.92913356       0.09506517       3.70573643
Ne       1.49304386       3.08103992       1.61856954     -20.93102683      43.64933337     -10.44262182      -0.21480555      -0.25436091       0.16732673       0.05839296       0.07407436       0.32719028      -5.07884862
Ne       0.62441185       1.58365641       2.23946597      33.12002365     -91.47149373      71.94455752      -0.95724276      -1.18940175      -0.80707799       0.29650708      -0.38872355      -0.14122425      -2.04621310
Ne       1.34385130       2.22700612       2.23245985     175.37087540      86.75009565     317.93203700      -2.28930498      -1.06535585      -3.29572546      -0.59720542      -1.55915239       0.10348840       6.05025323
Ne       2.39950434       3.17874057       2.50309275    -718.48346719     -72.09906179    -563.70415540      -7.81849665      -0.16875714      -4.28347571      -0.51785950      -5.69964119      -0.96935769      20.30224329
Ne       1.51651969       1.52329779       3.08820585     -69.80513813       5.73936197      71.24558561      -0.49619532       0.21220627      -0.46851193      -0.04551185       0.76866870       0.00421837      -4.01485048
Ne       2.44990461       2.37977680       3.10235699      -7.29976664     -22.91497740      21.69823882       0.18475588      -0.16326257       0.06091596       0.20635493       0.03216769      -0.03091235      -6.25016642
Ne       3.03180201       3.25851337       2.96958411     731.73453717      92.11381705     542.59706455      -7.69843570      -0.08903969      -4.10699883      -0.67331251      -5.81889126      -1.05039851      19.68795426
