27
Lattice="0.0 2.20875 2.20875 2.20875 0.0 2.20875 2.20875 2.20875 0.0" Properties=species:S:1:pos:R:3:forces:R:3:stresses:R:6:energies:R:1 energy=-68.37123182387168 stress="-45.650214324994025 -6.766030564641115 -6.766030564641115 -6.766030564641115 -45.650214324994025 -6.766030564641115 -6.766030564641115 -6.766030564641115 -45.65021432499401" free_energy=-68.37123182387168 pbc="T T T"
Ne       0.00000000       0.00000000       0.00000000     103.43713100     103.43713100     103.43713100      -2.21255914      -2.21255914      -2.21255914      -0.55881954      -0.55881954      -0.55881954      -1.15706756
Ne       0.77500000       0.77500000       0.00000000      41.98446107      41.98446107     123.23222478      -1.24914290      -1.24914290      -1.84693823      -0.69274283      -0.69274283       0.25479415      -3.60009607
Ne       1.55000000       1.55000000       0.00000000     -57.56791570     -57.56791570     218.51556524      -2.75601257      -2.75601257      -3.30894297       0.00285032       0.00285032      -0.54690530       2.08285202
Ne       0.77500000       0.00000000       0.77500000      41.98446107     123.23222478      41.98446107      -1.24914290      -1.84693823      -1.24914290      -0.69274283       0.25479415      -0.69274283      -3.60009607
Ne       1.55000000       0.77500000       0.77500000     -19.81098910      61.78067766      61.78067766      -0.28426989      -0.88303594      -0.88303594      -0.82501819       0.12076881       0.12076881      -6.08231900
Ne       2.32500000       1.55000000       0.77500000    -119.34539625       0.00000000     119.34539625      -1.79780870      -1.84160486      -1.79780870      -0.68656295       0.81014637      -0.68656295      -1.97576594
Ne       1.55000000       0.00000000       1.55000000     -57.56791570     218.51556524     -57.56791570      -2.75601257      -3.30894297      -2.75601257       0.00285032      -0.54690530       0.00285032       2.08285202
Ne       2.32500000       0.77500000       1.55000000    -119.34539625     119.34539625       0.00000000      -1.79780870      -1.79780870      -1.84160486      -0.68656295      -0.68656295       0.81014637      -1.97576594
Ne       3.10000000       1.55000000       1.55000000    -218.51556524      57.56791570      57.56791570      -3.30894297      -2.75601257      -2.75601257      -0.54690530       0.00285032       0.00285032       2.08285202
Ne       0.00000000       0.77500000       0.77500000     123.23222478      41.98446107      41.98446107      -1.84693823      -1.24914290      -1.24914290       0.25479415      -0.69274283      -0.69274283      -3.60009607
Ne       0.77500000       1.55000000       0.77500000      61.78067766     -19.81098910      61.78067766      -0.88303594      -0.28426989      -0.88303594       0.12076881      -0.82501819       0.12076881      -6.08231900
Ne       1.55000000       2.32500000       0.77500000       0.00000000    -119.34539625     119.34539625      -1.84160486      -1.79780870      -1.79780870       0.81014637      -0.68656295      -0.68656295      -1.97576594
Ne       0.77500000       0.77500000       1.55000000      61.78067766      61.78067766     -19.81098910      -0.88303594      -0.88303594      -0.28426989       0.12076881       0.12076881      -0.82501819      -6.08231900
Ne       1.55000000       1.55000000       1.55000000       0.00000000       0.00000000       0.00000000       0.08241632       0.08241632       0.08241632      -0.01167902      -0.01167902      -0.01167902      -8.60512280
Ne       2.32500000       2.32500000       1.55000000     -61.78067766     -61.78067766      19.81098910      -0.88303594      -0.88303594      -0.28426989       0.12076881       0.12076881      -0.82501819      -6.08231900
Ne       1.55000000       0.77500000       2.32500000       0.00000000     119.34539625    -119.34539625      -1.84160486      -1.79780870      -1.79780870       0.81014637      -0.68656295      -0.68656295      -1.97576594
Ne       2.32500000       1.55000000       2.32500000     -61.78067766      19.81098910     -61.78067766      -0.88303594      -0.28426989      -0.88303594       0.12076881      -0.82501819       0.12076881      -6.08231900
Ne       3.10000000       2.32500000       2.32500000    -123.23222478     -41.98446107     -41.98446107      -1.84693823      -1.24914290      -1.24914290       0.25479415      -0.69274283      -0.69274283      -3.60009607
Ne       0.00000000       1.55000000       1.55000000     218.51556524     -57.56791570     -57.56791570      -3.30894297      -2.75601257      -2.75601257      -0.54690530       0.00285032       0.00285032       2.08285202
Ne       0.77500000       2.32500000       1.55000000     119.34539625    -119.34539625       0.00000000      -1.79780870      -1.79780870      -1.84160486      -0.68656295      -0.68656295       0.81014637      -1.97576594
Ne       1.55000000       3.10000000       1.55000000      57.56791570    -218.51556524      57.56791570      -2.75601257      -3.30894297      -2.75601257       0.00285032      -0.54690530       0.00285032       2.08285202
Ne       0.77500000       1.55000000       2.32500000     119.34539625       0.00000000    -119.34539625      -1.79780870      -1.84160486      -1.79780870      -0.68656295       0.81014637      -0.68656295      -1.97576594
Ne       1.55000000       2.32500000       2.32500000      19.81098910     -61.78067766     -61.78067766      -0.28426989      -0.88303594      -0.88303594      -0.82501819       0.12076881       0.12076881      -6.08231900
Ne       2.32500000       3.10000000       2.32500000     -41.98446107    -123.23222478     -41.98446107      -1.24914290      -1.84693823      -1.24914290      -0.69274283       0.25479415      -0.69274283      -3.60009607
Ne       1.55000000       1.55000000       3.10000000      57.56791570      57.56791570    -218.51556524      -2.75601257      -2.75601257      -3.30894297       0.00285032       0.00285032      -0.54690530       2.08285202
Ne       2.32500000       2.32500000       3.10000000     -41.98446107     -41.98446107    -123.23222478      -1.24914290      -1.24914290      -1.84693823      -0.69274283      -0.69274283       0.25479415      -3.60009607
Ne       3.10000000       3.10000000       3.10000000    -103.43713100    -103.43713100    -103.43713100      -2.21255914      -2.21255914      -2.21255914      -0.55881954      -0.55881954      -0.55881954      -1.15706756
