8
Lattice="0.0 1.5655000000000001 1.5655000000000001 1.5655000000000001 0.0 1.5655000000000001 1.5655000000000001 1.5655000000000001 0.0" Properties=species:S:1:pos:R:3:forces:R:3:stresses:R:6:energies:R:1 energy=-62.0596432589019 stress="1.6732770781224808 -0.0557730657489364 -0.020765767070488307 -0.0557730657489364 1.4182343542463278 -0.40038731507601444 -0.020765767070488307 -0.40038731507601444 1.4302438926668326" free_energy=-62.0596432589019 pbc="T T T"
Ne       0.00993428      -0.00276529       0.01295377      -1.95337021      -7.41437043     -10.01313437       0.29140951       0.04515477       0.06330879      -0.23454252      -0.00037746      -0.00195150      -7.68726383
Ne       0.80546060       0.77031693      -0.00468274      -4.42545748       4.93093220      -9.27874654       0.22916161       0.21348344       0.20583518       0.02864227      -0.02091665       0.03324855      -7.79810738
Ne       0.80658426       0.01534869       0.76561051      -1.10567883     -12.18965227       4.17389264       0.15707571       0.17333929       0.24114263       0.04369914      -0.00511779      -0.05045327      -7.75663269
Ne       1.56085120       0.76573165       0.76568540       4.26360891       1.81481057       6.73732192       0.10593329       0.18478781       0.18388614      -0.01386332       0.02880363      -0.07905733      -7.72715098
Ne       0.00483925       0.73673440       0.74050164      -3.80429790      13.59651008       9.30551203       0.22037584       0.01706012       0.04376990      -0.20335914      -0.00272963       0.02787878      -7.62512517
Ne       0.76375425       1.52974338       0.78128495      -2.24586868       1.12914460      -1.47507918       0.24742726       0.28310978       0.24320904      -0.00810059      -0.03771858       0.00047565      -7.85277341
Ne       0.75683952       0.74675393       1.57931298       3.95551757       4.15694760      -5.15160616       0.20743230       0.29298216       0.22835103      -0.00089952       0.05324074      -0.00338336      -7.82136069
Ne       1.54548447       1.55135056       1.52150504       5.31554663      -6.02432236       5.70183967       0.21446156       0.20831698       0.22074119      -0.01196363      -0.03595003       0.01746942      -7.79122910
