27
Lattice="0.0 2.25525 2.25525 2.25525 0.0 2.25525 2.25525 2.25525 0.0" Properties=species:S:1:pos:R:3:forces:R:3:stresses:R:6:energies:R:1 energy=-182.27831606541042 stress="-13.920969936449648 -1.3137900418847779 -1.3137900418847783 -1.3137900418847779 -13.920969936449648 -1.313790041884779 -1.3137900418847783 -1.313790041884779 -13.920969936449644" free_energy=-182.27831606541042 pbc="T T T"
Ne       0.00000000       0.00000000       0.00000000      29.77267708      29.77267708      29.77267708      -0.72737441      -0.72737441      -0.72737441      -0.10685378      -0.10685378      -0.10685378      -6.30206257
Ne       0.77500000       0.77500000       0.00000000      10.19227750      10.19227750      39.26495957      -0.42158330      -0.42158330      -0.56190427      -0.17674459      -0.17674459       0.13356313      -6.95572020
Ne       1.55000000       1.55000000       0.00000000     -16.92593863     -16.92593863      63.60756432      -0.83486501      -0.83486501      -0.93974708       0.00258441       0.00258441      -0.10414586      -5.67609396
Ne       0.77500000       0.00000000       0.77500000      10.19227750      39.26495957      10.19227750      -0.42158330      -0.56190427      -0.42158330      -0.17674459       0.13356313      -0.17674459      -6.95572020
Ne       1.55000000       0.77500000       0.77500000      -9.50179224      19.68811510      19.68811510      -0.11365504      -0.25602286      -0.25602286      -0.24618380       0.06357911       0.06357911      -7.62186053
Ne       2.32500000       1.55000000       0.77500000     -36.61525474       0.00000000      36.61525474      -0.52790913      -0.56305227      -0.52790913      -0.17534928       0.24157098      -0.17534928      -6.64189052
Ne       1.55000000       0.00000000       1.55000000     -16.92593863      63.60756432     -16.92593863      -0.83486501      -0.93974708      -0.83486501       0.00258441      -0.10414586       0.00258441      -5.67609396
Ne       2.32500000       0.77500000       1.55000000     -36.61525474      36.61525474       0.00000000      -0.52790913      -0.52790913      -0.56305227      -0.17534928      -0.17534928       0.24157098      -6.64189052
Ne       3.10000000       1.55000000       1.55000000     -63.60756432      16.92593863      16.92593863      -0.93974708      -0.83486501      -0.83486501      -0.10414586       0.00258441       0.00258441      -5.67609396
Ne       0.00000000       0.77500000       0.77500000      39.26495957      10.19227750      10.19227750      -0.56190427      -0.42158330      -0.42158330       0.13356313      -0.17674459      -0.17674459      -6.95572020
Ne       0.77500000       1.55000000       0.77500000      19.68811510      -9.50179224      19.68811510      -0.25602286      -0.11365504      -0.25602286       0.06357911      -0.24618380       0.06357911      -7.62186053
Ne       1.55000000       2.32500000       0.77500000       0.00000000     -36.61525474      36.61525474      -0.56305227      -0.52790913      -0.52790913       0.24157098      -0.17534928      -0.17534928      -6.64189052
Ne       0.77500000       0.77500000       1.55000000      19.68811510      19.68811510      -9.50179224      -0.25602286      -0.25602286      -0.11365504       0.06357911       0.06357911      -0.24618380      -7.62186053
Ne       1.55000000       1.55000000       1.55000000       0.00000000       0.00000000       0.00000000       0.05201739       0.05201739       0.05201739      -0.00597001      -0.00597001      -0.00597001      -8.30079962
Ne       2.32500000       2.32500000       1.55000000     -19.68811510     -19.68811510       9.50179224      -0.25602286      -0.25602286      -0.11365504       0.06357911       0.06357911      -0.24618380      -7.62186053
Ne       1.55000000       0.77500000       2.32500000       0.00000000      36.61525474     -36.61525474      -0.56305227      -0.52790913      -0.52790913       0.24157098      -0.17534928      -0.17534928      -6.64189052
Ne       2.32500000       1.55000000       2.32500000     -19.68811510       9.50179224     -19.68811510      -0.25602286      -0.11365504      -0.25602286       0.06357911      -0.24618380       0.06357911      -7.62186053
Ne       3.10000000       2.32500000       2.32500000     -39.26495957     -10.19227750     -10.19227750      -0.56190427      -0.42158330      -0.42158330       0.13356313      -0.17674459      -0.17674459      -6.95572020
Ne       0.00000000       1.55000000       1.55000000      63.60756432     -16.92593863     -16.92593863      -0.93974708      -0.83486501      -0.83486501      -0.10414586       0.00258441       0.00258441      -5.67609396
Ne       0.77500000       2.32500000       1.55000000      36.61525474     -36.61525474       0.00000000      -0.52790913      -0.52790913      -0.56305227      -0.17534928      -0.17534928       0.24157098      -6.64189052
Ne       1.55000000       3.10000000       1.55000000      16.92593863     -63.60756432      16.92593863      -0.83486501      -0.93974708      -0.83486501       0.00258441      -0.10414586       0.00258441      -5.67609396
Ne       0.77500000       1.55000000       2.32500000      36.61525474       0.00000000     -36.61525474      -0.52790913      -0.56305227      -0.52790913      -0.17534928       0.24157098      -0.17534928      -6.64189052
Ne       1.55000000       2.32500000       2.32500000       9.50179224     -19.68811510     -19.68811510      -0.11365504      -0.25602286      -0.25602286      -0.24618380       0.06357911       0.06357911      -7.62186053
Ne       2.32500000       3.10000000       2.32500000     -10.19227750     -39.26495957     -10.19227750      -0.42158330      -0.56190427      -0.42158330      -0.17674459       0.13356313      -0.17674459      -6.95572020
Ne       1.55000000       1.55000000       3.10000000      16.92593863      16.92593863     -63.60756432      -0.83486501      -0.83486501      -0.93974708       0.00258441       0.00258441      -0.10414586      -5.67609396
Ne       2.32500000       2.32500000       3.10000000     -10.19227750     -10.19227750     -39.26495957      -0.42158330      -0.42158330      -0.56190427      -0.17674459      -0.17674459       0.13356313      -6.95572020
Ne       3.10000000       3.10000000       3.10000000     -29.77267708     -29.77267708     -29.77267708      -0.72737441      -0.72737441      -0.72737441      -0.10685378      -0.10685378      -0.10685378      -6.30206257
