8
Lattice="0.0 1.5035 1.5035 1.5035 0.0 1.5035 1.5035 1.5035 0.0" Properties=species:S:1:pos:R:3:forces:R:3:stresses:R:6:energies:R:1 energy=-56.51713187743566 stress="-11.887109382396472 -0.12166009739644988 -1.5317972711094043 -0.12166009739644988 -11.737625862381718 -0.2873549561372871 -1.5317972711094043 -0.2873549561372871 -12.490254668867115" free_energy=-56.51713187743566 pbc="T T T"
Ne       0.03577257       0.00873020       0.00192995      -3.94881770      -6.45402062      23.78621714      -1.10536466      -1.52095534      -1.42939301      -0.12193882      -0.00568454      -0.08188383      -7.28128342
Ne       0.73773015       0.76945224      -0.00709518      23.16791456      -0.63999674      31.45659996      -1.51987051      -1.27024120      -1.72083482       0.13105262      -0.48826448      -0.17713333      -7.05379745
Ne       0.77334517      -0.01254001       0.77412364     -12.18540946      27.46157477      -7.97069740      -1.35913735      -1.44927874      -1.17188838       0.17223448      -0.01163632       0.18998120      -7.29395082
Ne       1.54045564       0.74872270       0.79269245     -30.13581210      29.95105447     -13.01362845      -1.78539899      -1.67230770      -2.16746950      -0.31945014      -0.42240910       0.11012807      -6.59062859
Ne       0.01762636       0.80919146       0.77600067      12.92784068     -28.73696278      -7.18009963      -1.38356783      -1.48129281      -1.31217198      -0.25439443      -0.03506463       0.19633943      -7.21194316
Ne       0.76690645       1.53909280       0.74407045      32.41302680     -20.82380969      20.66532662      -1.64761521      -1.42345730      -1.59838719       0.21625572      -0.27899592       0.16636097      -7.00420766
Ne       0.79464735       0.75297865       1.52629907       5.11401424      23.09467098     -14.10057292      -1.41394166      -1.44573708      -1.31009935       0.19940244       0.07859294      -0.26644230      -7.22285627
Ne       1.54588700       1.57972297       1.55473433     -27.35275702     -23.85251038     -33.64314532      -1.67221317      -1.47435569      -1.78001043      -0.31051683      -0.36833522      -0.25901030      -6.85846452
