8
Lattice="0.0 1.488 1.488 1.488 0.0 1.488 1.488 1.488 0.0" Properties=species:S:1:pos:R:3:forces:R:3:stresses:R:6:energies:R:1 energy=-52.377902400577334 stress="-18.260070656839808 -1.098696033861438 -1.098696033861439 -1.098696033861438 -18.26007065683981 -1.0986960338614387 -1.098696033861439 -1.0986960338614387 -18.260070656839815" free_energy=-52.377902400577334 pbc="T T T"
Ne       0.00000000       0.00000000       0.00000000      23.78107137      23.78107137      23.78107137      -2.01335381      -2.01335381      -2.01335381      -0.27701478      -0.27701478      -0.27701478      -6.88549282
Ne       0.77500000       0.77500000       0.00000000     -13.59053190     -13.59053190      50.94953042      -2.28365378      -2.28365378      -2.54937395      -0.00111693      -0.00111693      -0.27009937      -6.43448613
Ne       0.77500000       0.00000000       0.77500000     -13.59053190      50.94953042     -13.59053190      -2.28365378      -2.54937395      -2.28365378      -0.00111693      -0.27009937      -0.00111693      -6.43448613
Ne       1.55000000       0.77500000       0.77500000     -50.94953042      13.59053190      13.59053190      -2.54937395      -2.28365378      -2.28365378      -0.27009937      -0.00111693      -0.00111693      -6.43448613
Ne       0.00000000       0.77500000       0.77500000      50.94953042     -13.59053190     -13.59053190      -2.54937395      -2.28365378      -2.28365378      -0.27009937      -0.00111693      -0.00111693      -6.43448613
Ne       0.77500000       1.55000000       0.77500000      13.59053190     -50.94953042      13.59053190      -2.28365378      -2.54937395      -2.28365378      -0.00111693      -0.27009937      -0.00111693      -6.43448613
Ne       0.77500000       0.77500000       1.55000000      13.59053190      13.59053190     -50.94953042      -2.28365378      -2.28365378      -2.54937395      -0.00111693      -0.00111693      -0.27009937      -6.43448613
Ne       1.55000000       1.55000000       1.55000000     -23.78107137     -23.78107137     -23.78107137      -2.01335381      -2.01335381      -2.01335381      -0.27701478      -0.27701478      -0.27701478      -6.88549282
