8
Lattice="0.0 1.5655000000000001 1.5655000000000001 1.5655000000000001 0.0 1.5655000000000001 1.5655000000000001 1.5655000000000001 0.0" Properties=species:S:1:pos:R:3:forces:R:3:stresses:R:6:energies:R:1 energy=-48.74144849150477 stress="-8.876596914594838 -5.424370755570628 1.2919152747966396 -5.424370755570628 -7.917530089415233 0.2844220237701919 1.2919152747966396 0.2844220237701919 -5.810039817419054" free_energy=-48.74144849150477 pbc="T T T"
Ne      -0.02093367       0.05902221       0.03485537       7.18477715     -38.15458638      17.76975528       0.25056778      -0.89115451      -1.02721098       0.70678908      -0.11551548      -0.00539634      -6.70648238
Ne       0.77921707       0.82165196       0.03491752      27.13562323      16.05235872     -38.65673547      -0.68381786      -0.03465755      -1.12946034       0.33790387       1.03775773       0.01582452      -6.60036597
Ne       0.86330743       0.09979086       0.75932937     -79.25576827     -98.49854017       3.81503877      -3.26937485      -3.21438254      -0.60473309      -0.37088978      -0.45671360      -2.61862196      -3.92982702
Ne       1.50867939       0.73330460       0.89142541      85.04161604      97.76167730     -31.53102337      -3.32949344      -3.79686258      -1.22717121       0.06015761      -0.23643817      -2.86173777      -3.34623545
Ne       0.10832491       0.80237883       0.74051128     -44.10793481      15.06574407      34.37211862      -0.98797649      -0.23626024      -1.09145578      -0.27391840       0.92313193       0.13139885      -6.39256076
Ne       0.78185083       1.64081485       0.79606791      -6.72979965      -2.50184589      -7.37174263      -0.12759076       0.23156514      -0.10489291       0.02374247      -0.26955007       0.06693582      -7.46565498
Ne       0.76966401       0.83001725       1.58033871     -20.39547619      -1.58971388      17.98832405      -0.36314744       0.09859647      -0.19491265      -0.02050022       0.41150969      -0.08634109      -7.26002511
Ne       1.50108373       1.57334906       1.52450225      31.12696250      11.86490622       3.61426474      -0.36576386      -0.07437428      -0.43020285      -0.17886260      -0.00226676      -0.06643279      -7.04029682
