8
Lattice="0.0 1.612 1.612 1.612 0.0 1.612 1.612 1.612 0.0" Properties=species:S:1:pos:R:3:forces:R:3:stresses:R:6:energies:R:1 energy=-49.8273282220465 stress="1.2980705234944143 -0.6395659638588604 -0.32293039738064 -0.6395659638588604 -3.135493379177364 -5.027003355929297 -0.32293039738064 -5.027003355929297 -2.3524737891114227" free_energy=-49.8273282220465 pbc="T T T"
Ne       0.02980285      -0.00829586       0.03886131      -2.73846526     -70.76727391     -70.82331216       0.66614924      -2.15124139      -1.83646618      -2.67658740       0.01854069       0.04448786      -4.65860845
Ne       0.86638179       0.76095080      -0.01404822      -9.45518233      12.00970745     -22.49373913       0.29587008       0.21020926       0.02188864       0.20931773      -0.16050777       0.15681258      -6.84954428
Ne       0.86975277       0.04604608       0.74683154      -9.65777022     -34.31156548      10.94881521      -0.32921630      -0.29195356       0.31673766       0.28480831      -0.06118191      -0.47959088      -6.39056210
Ne       1.58255360       0.74719494       0.74705621      19.04572366      12.17098177      15.31680094      -0.57843594      -0.13808114       0.05527960      -0.11281188       0.04302316      -0.63695465      -6.31681448
Ne       0.01451774       0.66020319       0.67150493     -11.62037779      80.64700799      67.62183220       0.27767059      -2.35865930      -1.95604304      -2.51609256       0.07602298       0.20368357      -4.28878175
Ne       0.74126275       1.48923013       0.79385484      -7.53913322       3.53972012      -5.06884761       0.33980166       0.62368847       0.37859505      -0.08815102      -0.27316971      -0.02180313      -7.21179262
Ne       0.72051856       0.69026178       1.63793893       9.02304685       4.88978859      -9.47984160       0.37709431       0.70679305       0.39865399      -0.04116656       0.27467608       0.00917430      -7.17756014
Ne       1.53645342       1.55405169       1.46451511      12.94215832      -8.17836653      13.97829215       0.24913688       0.26375123       0.26888050      -0.08631997      -0.24033392       0.08462440      -6.93366440
