8
Lattice="0.0 1.5965 1.5965 1.5965 0.0 1.5965 1.5965 1.5965 0.0" Properties=species:S:1:pos:R:3:forces:R:3:stresses:R:6:energies:R:1 energy=-57.53323551120382 stress="2.543671846612467 -0.488882934710856 0.1275778330454407 -0.488882934710856 1.7152735437703936 1.9984272454117946 0.1275778330454407 1.9984272454117946 1.2096228843870027" free_energy=-57.53323551120382 pbc="T T T"
Ne      -0.07558947      -0.01654369      -0.03064104       4.04463514      -0.23297843      -0.20911956       0.49559592       0.55553275       0.43599427       0.02792106      -0.03768503      -0.02109874      -7.54568139
Ne       0.73803493       0.71813609       0.03221024      -1.60779531      25.43522940     -35.31558714       0.38142842      -0.36525953      -0.54139336       0.87697994      -0.10102555       0.10376013      -6.60461168
Ne       0.82095447       0.04677714       0.74291963     -12.26453196     -29.98703312      30.14147182       0.19913720      -0.49214296      -0.69843809       0.92180273      -0.04924355      -0.03329816      -6.40114866
Ne       1.57889911       0.77711948       0.72773919       9.90955496       2.17706573       8.56052280       0.14145007       0.32613307       0.51071433       0.01310000       0.06057285      -0.14830480      -7.33732784
Ne      -0.02704605       0.76835094       0.79369741      -6.36723906      -0.06846688       3.19099140       0.48591727       0.57953405       0.52208458      -0.00799524       0.08335893      -0.00537831      -7.60292175
Ne       0.78834876       1.51601369       0.77774731      -8.37770811      12.00315960      -3.15576172       0.39972403       0.41742474       0.27517386       0.06680667      -0.02519177       0.01632066      -7.40455856
Ne       0.77574328       0.82762132       1.59659098      -3.96818186     -12.85466504      -0.92187221       0.27327486       0.31450218       0.35910294       0.12465338       0.10022006      -0.23199761      -7.33322075
Ne       1.53638685       1.55224933       1.55903515      18.63126620       3.52768875      -2.29064539       0.16714407       0.37954925       0.34638436      -0.02484129       0.09657190      -0.16888609      -7.30376489
