27
Lattice="0.0 2.34825 2.34825 2.34825 0.0 2.34825 2.34825 2.34825 0.0" Properties=species:S:1:pos:R:3:forces:R:3:stresses:R:6:energies:R:1 energy=-212.19572871865276 stress="2.0575287954436146 -0.046306139210517586 -0.04630613921051874 -0.046306139210517586 2.0575287954436146 -0.0463061392105187 -0.04630613921051874 -0.0463061392105187 2.057528795443616" free_energy=-212.19572871865276 pbc="T T T"
Ne       0.00000000       0.00000000       0.00000000      -2.97013456      -2.97013456      -2.97013456       0.11194310       0.11194310       0.11194310      -0.00461819      -0.00461819      -0.00461819      -7.88263497
Ne       0.77500000       0.77500000       0.00000000      -0.54081162      -0.54081162      -4.84778081       0.07551183       0.07551183       0.08270413       0.01105566       0.01105566      -0.02989820      -7.86563569
Ne       1.55000000       1.55000000       0.00000000       1.60122652       1.60122652      -6.17209623       0.10797228       0.10797228       0.10438442      -0.00070792      -0.00070792      -0.00452689      -7.86202523
Ne       0.77500000       0.00000000       0.77500000      -0.54081162      -4.84778081      -0.54081162       0.07551183       0.08270413       0.07551183       0.01105566      -0.02989820       0.01105566      -7.86563569
Ne       1.55000000       0.77500000       0.77500000       1.87701528      -2.41811351      -2.41811351       0.03923742       0.04627317       0.04627317       0.02675764      -0.01423202      -0.01423202      -7.84962826
Ne       2.32500000       1.55000000       0.77500000       4.01892178       0.00000000      -4.01892178       0.07173657       0.08250848       0.07173657       0.01110026      -0.02603084       0.01110026      -7.85535373
Ne       1.55000000       0.00000000       1.55000000       1.60122652      -6.17209623       1.60122652       0.10797228       0.10438442       0.10797228      -0.00070792      -0.00452689      -0.00070792      -7.86202523
Ne       2.32500000       0.77500000       1.55000000       4.01892178      -4.01892178       0.00000000       0.07173657       0.07173657       0.08250848       0.01110026       0.01110026      -0.02603084      -7.85535373
Ne       3.10000000       1.55000000       1.55000000       6.17209623      -1.60122652      -1.60122652       0.10438442       0.10797228       0.10797228      -0.00452689      -0.00070792      -0.00070792      -7.86202523
Ne       0.00000000       0.77500000       0.77500000      -4.84778081      -0.54081162      -0.54081162       0.08270413       0.07551183       0.07551183      -0.02989820       0.01105566       0.01105566      -7.86563569
Ne       0.77500000       1.55000000       0.77500000      -2.41811351       1.87701528      -2.41811351       0.04627317       0.03923742       0.04627317      -0.01423202       0.02675764      -0.01423202      -7.84962826
Ne       1.55000000       2.32500000       0.77500000       0.00000000       4.01892178      -4.01892178       0.08250848       0.07173657       0.07173657      -0.02603084       0.01110026       0.01110026      -7.85535373
Ne       0.77500000       0.77500000       1.55000000      -2.41811351      -2.41811351       1.87701528       0.04627317       0.04627317       0.03923742      -0.01423202      -0.01423202       0.02675764      -7.84962826
Ne       1.55000000       1.55000000       1.55000000       0.00000000       0.00000000       0.00000000       0.00999832       0.00999832       0.00999832       0.00146292       0.00146292       0.00146292      -7.83460131
Ne       2.32500000       2.32500000       1.55000000       2.41811351       2.41811351      -1.87701528       0.04627317       0.04627317       0.03923742      -0.01423202      -0.01423202       0.02675764      -7.84962826
Ne       1.55000000       0.77500000       2.32500000       0.00000000      -4.01892178       4.01892178       0.08250848       0.07173657       0.07173657      -0.02603084       0.01110026       0.01110026      -7.85535373
Ne       2.32500000       1.55000000       2.32500000       2.41811351      -1.87701528       2.41811351       0.04627317       0.03923742       0.04627317      -0.01423202       0.02675764      -0.01423202      -7.84962826
Ne       3.10000000       2.32500000       2.32500000       4.84778081       0.54081162       0.54081162       0.08270413       0.07551183       0.07551183      -0.02989820       0.01105566       0.01105566      -7.86563569
Ne       0.00000000       1.55000000       1.55000000      -6.17209623       1.60122652       1.60122652       0.10438442       0.10797228       0.10797228      -0.00452689      -0.00070792      -0.00070792      -7.86202523
Ne       0.77500000       2.32500000       1.55000000      -4.01892178       4.01892178       0.00000000       0.07173657       0.07173657       0.08250848       0.01110026       0.01110026      -0.02603084      -7.85535373
Ne       1.55000000       3.10000000       1.55000000      -1.60122652       6.17209623      -1.60122652       0.10797228       0.10438442       0.10797228      -0.00070792      -0.00452689      -0.00070792      -7.86202523
Ne       0.77500000       1.55000000       2.32500000      -4.01892178       0.00000000       4.01892178       0.07173657       0.08250848       0.07173657       0.01110026      -0.02603084       0.01110026      -7.85535373
Ne       1.55000000       2.32500000       2.32500000      -1.87701528       2.41811351       2.41811351       0.03923742       0.04627317       0.04627317       0.02675764      -0.01423202      -0.01423202      -7.84962826
Ne       2.32500000       3.10000000       2.32500000       0.54081162       4.84778081       0.54081162       0.07551183       0.08270413       0.07551183       0.01105566      -0.02989820       0.01105566      -7.86563569
Ne       1.55000000       1.55000000       3.10000000      -1.60122652      -1.60122652       6.17209623       0.10797228       0.10797228       0.10438442      -0.00070792      -0.00070792      -0.00452689      -7.86202523
Ne       2.32500000       2.32500000       3.10000000       0.54081162       0.54081162       4.84778081       0.07551183       0.07551183       0.08270413       0.01105566       0.01105566      -0.02989820      -7.86563569
Ne       3.10000000       3.10000000       3.10000000       2.97013456       2.97013456       2.97013456       0.11194310       0.11194310       0.11194310      -0.00461819      -0.00461819      -0.00461819      -7.88263497
