27
Lattice="0.0 2.34825 2.34825 2.34825 0.0 2.34825 2.34825 2.34825 0.0" Properties=species:S:1:pos:R:3:forces:R:3:stresses:R:6:energies:R:1 energy=-207.07938355788963 stress="0.9089028934031887 -0.1608874663718453 0.056685571821660674 -0.1608874663718453 1.090824413975271 -0.06655531771334182 0.056685571821660674 -0.06655531771334182 0.9199163558276975" free_energy=-207.07938355788963 pbc="T T T"
Ne       0.01352827       0.03042198      -0.01023752      -8.57007074     -18.18825609       0.30706133       0.02987812      -0.01219666      -0.03739831      -0.03865551       0.02377683       0.03360385      -7.44989527
Ne       0.79800389       0.76318566      -0.01537531      -8.23636916       4.48811685      -2.35005626      -0.02510526       0.02938937      -0.01240691       0.04166722      -0.07035040      -0.07520546      -7.67182261
Ne       1.54329982       1.55185999      -0.02755106       5.89725801       6.83434092       1.44198575       0.14913412       0.10247656       0.14512979      -0.01458540      -0.00184795       0.00519467      -7.83655660
Ne       0.77955834      -0.01180329       0.74906120      -4.71524867      -7.72858864       1.69248054       0.00578814       0.03390617       0.04252361      -0.00786232      -0.07709985       0.01338395      -7.70464856
Ne       1.51803882       0.76905182       0.74596884       9.05565801       3.27356082       7.94486252       0.03271599       0.10255897       0.04513663       0.06499802      -0.03704403      -0.05768416      -7.70513993
Ne       2.32100276       1.53894509       0.81416920      -0.68781146       3.00026188     -14.01355602       0.10622055       0.14286391       0.08242601      -0.01898360      -0.02741704       0.00673736      -7.73184355
Ne       1.51590332       0.01826858       1.53616156      11.00751161     -10.42648213       3.59733023       0.08769338       0.02705146       0.06545049      -0.04037636      -0.02997466       0.06389776      -7.66011657
Ne       2.31156897       0.78589033       1.59474574       7.19839145      -7.36822044     -19.06674627      -0.00566954      -0.06303880      -0.06299644       0.04841748       0.10761052      -0.01740829      -7.43073740
Ne       3.10313523       1.51759615       1.54008083       1.68123346       6.85642943       3.17181600      -0.01955471       0.09732434       0.06289736       0.01696629      -0.03123617       0.01743118      -7.74805016
Ne      -0.02044353       0.73105730       0.76994714       2.29061774      12.77064776       4.13856126       0.07654535       0.06444328       0.02439924      -0.06681425      -0.03065018      -0.00023878      -7.71770382
Ne       0.75375079       1.58685444       0.76462433       5.74680002     -13.14675082      -0.16438699       0.04561690       0.05269701       0.04367129       0.02160906       0.06492993       0.04405741      -7.70955190
Ne       1.52809239       2.35330388       0.77333571       4.00509473      -5.84769674      -0.04485044       0.07290442       0.05671797       0.15158135       0.00758828      -0.00985621      -0.03409011      -7.83798047
Ne       0.74893681       0.73415413       1.54502342      -0.91333445      12.08192548       1.97023136       0.02904343       0.03370205       0.11141910      -0.03046207      -0.00308052       0.07483438      -7.72312411
Ne       1.55611568       1.56887193       1.57322498      -7.19388718      -9.63824256     -15.72119814      -0.03104452       0.00158323      -0.09178947      -0.08222080       0.07204765       0.01392682      -7.48699504
Ne       2.33267694       2.31890798       1.56895800       0.46493979       2.74283919      -5.38981287       0.02546310       0.01131652       0.03074594      -0.00709030       0.00218126      -0.07377948      -7.75235900
Ne       1.57453488       0.76038791       2.32155276     -17.17745718       1.92672237       9.49557678      -0.04247262       0.04374149      -0.01432267       0.01383548       0.09737018      -0.00039692      -7.55981279
Ne       2.31112395       1.53750108       2.33289361       7.81472398       2.33052482       8.90275999       0.03150458      -0.02875607       0.00194774      -0.07006836      -0.05330540      -0.04290070      -7.73239812
Ne       3.09511405       2.31418101       2.33330688       7.09483141       0.99635196      -7.45541622       0.02179238       0.03094878      -0.06502697       0.03012572       0.02656977       0.03095603      -7.65858931
Ne       0.02337000       1.57895620       1.53965777     -17.01901459      -9.09656493       2.44363182      -0.02234010       0.09624551       0.06872341       0.01067021      -0.02041500      -0.10861268      -7.54597872
Ne       0.73685341       2.33319238       1.55636779      11.00210835      13.07260504      -6.28020791      -0.02157717      -0.03834075      -0.02373361       0.00403001       0.02578387      -0.08767238      -7.57914146
Ne       1.54999870       3.13702206       1.54874478       2.85985843      -7.06271401      -0.64657128       0.11851532       0.06817697       0.04299859      -0.00234183       0.04726288       0.05400001      -7.78033904
Ne       0.77854514       1.55895049       2.29173916      -5.08531375      -8.23045913      14.69224692       0.03713112       0.07720931       0.03914987       0.04079514      -0.00331189      -0.03904080      -7.62879175
Ne       1.54424845       2.30615443       2.30000537       0.97202151      11.79863996      11.76642097      -0.00931675      -0.04952911      -0.00169741      -0.11091803       0.03817543      -0.01206236      -7.62421628
Ne       2.31910234       3.09928146       2.35032143      -2.29576297       8.71545618      -9.73156869       0.05764431       0.08789165       0.01894480       0.04481164      -0.05049850       0.02753084      -7.69014895
Ne       1.54653534       1.56143609       3.14837900       2.03737605      -2.46473823      -8.85271453       0.12948360       0.11332345       0.10305484       0.03215625       0.03544199       0.02280496      -7.83877231
Ne       2.34601016       2.34005575       3.08625950     -14.37317483      -1.60872678      10.00038839       0.00011811      -0.02983169       0.03560518       0.09101300       0.03162843      -0.01627372      -7.59401341
Ne       3.09322510       3.09386795       3.07711274       7.13902042       9.91901786       8.15173176       0.02879065       0.03894951       0.11348289      -0.04486029      -0.07000535      -0.00388084      -7.68065642
