8
Lattice="0.0 1.6275000000000002 1.6275000000000002 1.6275000000000002 0.0 1.6275000000000002 1.6275000000000002 1.6275000000000002 0.0" Properties=species:S:1:pos:R:3:forces:R:3:stresses:R:6:energies:R:1 energy=-57.07212804302238 stress="4.284849763022275 -0.29086679035619967 -0.2908667903561997 -0.29086679035619967 4.284849763022276 -0.29086679035619967 -0.2908667903561997 -0.29086679035619967 4.284849763022276" free_energy=-57.07212804302238 pbc="T T T"
Ne       0.00000000       0.00000000       0.00000000      -5.84025442      -5.84025442      -5.84025442       0.61447520       0.61447520       0.61447520      -0.07441082      -0.07441082      -0.07441082      -7.21971157
Ne       0.77500000       0.77500000       0.00000000       2.93418060       2.93418060     -11.69306033       0.53165908       0.53165908       0.46463152       0.00154974       0.00154974      -0.07412205      -7.10545082
Ne       0.77500000       0.00000000       0.77500000       2.93418060     -11.69306033       2.93418060       0.53165908       0.46463152       0.53165908       0.00154974      -0.07412205       0.00154974      -7.10545082
Ne       1.55000000       0.77500000       0.77500000      11.69306033      -2.93418060      -2.93418060       0.46463152       0.53165908       0.53165908      -0.07412205       0.00154974       0.00154974      -7.10545082
Ne       0.00000000       0.77500000       0.77500000     -11.69306033       2.93418060       2.93418060       0.46463152       0.53165908       0.53165908      -0.07412205       0.00154974       0.00154974      -7.10545082
Ne       0.77500000       1.55000000       0.77500000      -2.93418060      11.69306033      -2.93418060       0.53165908       0.46463152       0.53165908       0.00154974      -0.07412205       0.00154974      -7.10545082
Ne       0.77500000       0.77500000       1.55000000      -2.93418060      -2.93418060      11.69306033       0.53165908       0.53165908       0.46463152       0.00154974       0.00154974      -0.07412205      -7.10545082
Ne       1.55000000       1.55000000       1.55000000       5.84025442       5.84025442       5.84025442       0.61447520       0.61447520       0.61447520      -0.07441082      -0.07441082      -0.07441082      -7.21971157
