8
Lattice="0.0 1.488 1.488 1.488 0.0 1.488 1.488 1.488 0.0" Properties=species:S:1:pos:R:3:forces:R:3:stresses:R:6:energies:R:1 energy=-50.25588974643718 stress="-21.06028846600596 -1.6735373778234874 0.11461482614020095 -1.6735373778234874 -18.813041802814585 0.023010897539139145 0.11461482614020095 0.023010897539139145 -19.547038951100642" free_energy=-50.25588974643718 pbc="T T T"
Ne       0.00993428      -0.00276529       0.01295377      24.93993228      15.46940742       7.60175620      -2.12290673      -2.01183641      -1.89718150      -0.04060711      -0.25672254      -0.41219252      -6.88687228
Ne       0.80546060       0.77031693      -0.00468274     -28.26583972      -4.95202282      36.72431200      -2.31688150      -2.41146983      -2.15227245      -0.12670514       0.01178386      -0.31909323      -6.54420907
Ne       0.80658426       0.01534869       0.76561051     -17.00106650      30.02385126      -6.57495784      -1.82667137      -2.04419353      -2.03318382      -0.04099231      -0.23610146      -0.01674128      -6.94114673
Ne       1.56085120       0.76573165       0.76568540     -60.10704317      22.03400011      42.01567562      -3.15223233      -2.12379946      -2.97240139      -0.21512196       0.97741722       0.34169567      -5.92973487
Ne       0.00483925       0.73673440       0.74050164      55.10984785      13.55359347       5.31340649      -2.79053866      -1.89171577      -2.39727991      -0.01834591      -0.40810059      -0.11199224      -6.42026719
Ne       0.76375425       1.52974338       0.78128495      10.04350732     -62.62039403      16.09623962      -2.20587926      -2.93607021      -2.36651920       0.43539536      -0.08587654       0.06729135      -6.25519883
Ne       0.75683952       0.74675393       1.57931298      34.20732222      33.24750472     -85.40472677      -4.18631427      -2.98746012      -3.76191237       0.25958764       0.34275475      -0.65823714      -4.74479531
Ne       1.54548447       1.55135056       1.52150504     -18.92666028     -46.75594013     -15.77170532      -2.45886435      -2.40649646      -1.96628831      -0.23019967      -0.23053987      -0.56426799      -6.53366546
