27
Lattice="0.0 2.34825 2.34825 2.34825 0.0 2.34825 2.34825 2.34825 0.0" Properties=species:S:1:pos:R:3:forces:R:3:stresses:R:6:energies:R:1 energy=-132.6595407991909 stress="-12.823248536820385 0.48039140869189795 -2.104191539259126 0.48039140869189795 -12.776598639781138 -1.6340648904060622 -2.104191539259126 -1.6340648904060622 -14.575120688966289" free_energy=-132.6595407991909 pbc="T T T"
Ne       0.06052234      -0.01938740       0.00766478     -35.85338997      25.84370180     -33.16802559      -0.25105779      -0.04834866      -0.60976668       0.11980446      -0.35163095      -0.01437396      -5.92727800
Ne       0.79178637       0.85232389       0.09751778      37.81933449     -89.12130297     -19.06782988      -1.10247082      -1.02050284      -0.12446452       0.03738192       0.17203066       0.27968253      -3.77995040
Ne       1.52184858       1.47503598      -0.01562551      30.98193990      35.04056896       3.55316545      -0.35027682      -0.11100580       0.22461283       0.07372520       0.04381333      -0.32192504      -6.60878444
Ne       0.76614698      -0.02881096       0.67249448      62.86639625      22.13515344      38.57535268      -0.56492376      -0.26678615      -0.18258917       0.06207272      -0.32221084      -0.32080550      -5.49902539
Ne       1.61611298       0.77199461       0.92751644    -139.15139788    -115.59575255    -283.20433959      -1.74774597      -1.67257224      -2.94587564      -1.12521274      -1.70141321       0.10009302       3.72831651
Ne       2.39757854       1.66634451       0.75716736     -33.08216038     -45.40787750      11.72848909      -0.20019354      -0.35370622      -0.13603852       0.20350294       0.04713919      -0.31414427      -6.23089854
Ne       1.62925478       0.00118415       1.57918532     -18.85505309     -54.76922866      -5.22407889       0.02330683      -0.58623100      -0.09130787       0.00191400       0.01164169      -0.16338851      -6.12975889
Ne       2.21299017       0.79982054       1.55851531     216.14159135       0.63832846     166.83570174      -2.20620960      -0.49713769      -1.86766177      -0.02858851      -1.93847444       0.00615341       0.72133086
Ne       3.09722822       1.57556978       1.58878166      11.46936429     -33.50025007     -50.50105326       0.14041058      -0.18762851      -0.52370290      -0.48632877       0.06765180       0.04369135      -6.10505787
Ne       0.05082600       0.78639359       0.81695909     -24.24307518     -31.92426907      -0.95106055      -0.52954392      -0.25313496      -0.24122048       0.12031728       0.13975041      -0.18096586      -6.24012127
Ne       0.73470117       1.50488837       0.86975690      11.52503992      49.45163974     -10.22801991      -0.49444426      -0.43569082      -0.53805642       0.00127060      -0.30557458      -0.18673776      -5.61304094
Ne       1.51410441       2.45138585       0.70183107       3.23915498     -44.13391326      15.54202607       0.18655683      -0.14358335      -0.42763502       0.18803651      -0.07676717       0.08853351      -6.47873769
Ne       0.78795733       0.75950967       1.54277715     -26.52047741     -25.55962045       9.25201380      -0.34971023      -0.09092013      -0.46151444       0.22771843      -0.29270434       0.00917418      -6.34339592
Ne       1.54502478       1.49424851       1.45013415     -22.63400765     147.00863413      93.97853753      -0.73896897      -2.12489661      -0.88665731      -1.21324893      -0.09197862       0.31995464      -1.45750517
Ne       2.17033959       2.28504085       1.58521049     109.68566563     -38.97671287     -77.23800086      -0.84190991      -0.82303281      -1.20763416      -0.03157768       0.76412500       0.46912071      -2.60881579
Ne       1.44605798       0.69603795       2.28180700      21.29175540      23.23231861      10.39849583      -0.15070034      -0.48916728      -0.77956333       0.18498624      -0.14931651       0.27887904      -5.25118512
Ne       2.45051402       1.47795617       2.39516920    -109.97275423       2.64587553     -14.37591700      -1.17772658      -1.38140982      -0.30915839       0.18103390       0.10888902       0.15997883      -3.26301782
Ne       3.01931506       2.22528452       2.28558043      91.89668113      76.49422332     -32.03697368      -0.82129138      -0.93787155      -1.18624922      -0.55504187       0.87251731      -0.37006823      -2.59884637
Ne       0.03135879       1.56414128       1.65765050      -4.63691020      -5.44725836     -11.12837883       0.03794044       0.01961578      -0.00830615      -0.09181794       0.06826651       0.05226887      -7.39165919
Ne       0.82517751       2.40702669       1.62268378      -3.94846844      -4.46615720      -7.06654375       0.12514939       0.17661823       0.18829646       0.07831873       0.09266255      -0.12008572      -7.70207180
Ne       1.63936746       3.05752194       1.51037453     -42.52969339      72.55998470      17.85979489      -0.39280336      -0.83650394      -0.11934183      -0.03736173       0.04102743       0.43784256      -5.13325722
Ne       0.90353919       1.55155190       2.29708219     -17.37345177       6.20979999       4.56362880      -0.03417795      -0.22421365      -0.00562395      -0.06868644      -0.02292569       0.13813656      -7.21236249
Ne       1.67617924       2.28554802       2.35489307     -82.30031871       3.16497491      67.65306179      -0.76803227       0.09043839      -1.40005588       0.06264694       0.56870434      -0.16556598      -3.96889232
Ne       2.32781101       3.13091406       2.40189904       1.42893664      23.20009441     -24.36449245       0.05283467      -0.31663087      -0.10340420       0.35401305      -0.15801532       0.06755647      -6.86988046
Ne       1.64205119       1.51877140       3.10701145      -8.95403535       3.67686897       8.05101382       0.14475214       0.14026998       0.14303426       0.10209469       0.00844554       0.08423133      -7.64944762
Ne       2.42826444       2.34831924       2.98973218     -36.54194589     -10.71058083     113.71856960      -0.80781374      -0.41905312      -1.10524179       0.03254335       0.39295680       0.08804099      -3.63798543
Ne       3.07626579       3.15932235       3.13875973       8.25127956       8.31075681       6.84486315      -0.00419821       0.01648699       0.13000539      -0.02758123      -0.09280144       0.01511424      -7.40821201
