8
Lattice="0.0 1.6275000000000002 1.6275000000000002 1.6275000000000002 0.0 1.6275000000000002 1.6275000000000002 1.6275000000000002 0.0" Properties=species:S:1:pos:R:3:forces:R:3:stresses:R:6:energies:R:1 energy=-56.41423583913495 stress="3.516217751338257 -0.3847492134371741 -1.2684818574513685 -0.3847492134371741 4.496620947379676 -0.12962802417453256 -1.2684818574513685 -0.12962802417453256 3.7753094078498384" free_energy=-56.41423583913495 pbc="T T T"
Ne       0.02017411      -0.00646247       0.00255493      -6.53553061      -1.77781939      -7.27765423       0.57492081       0.68676892       0.58070499      -0.00644267      -0.15485776      -0.04525839      -7.21598940
Ne       0.78059546       0.80077463       0.03250593      -4.68018445       1.01219345     -17.29888529       0.34740561       0.50980795       0.28606405      -0.06157768      -0.22374718      -0.04178542      -6.90207173
Ne       0.76561619      -0.02498801       0.76979150       5.06693968      -8.76333248       7.25603575       0.49059465       0.54525725       0.51554203       0.02107679      -0.12881644       0.04636391      -7.09318495
Ne       1.54704899       0.76539635       0.74083149      14.49652255      -1.95584827       5.95700046       0.34293546       0.64725945       0.43078158       0.00785821      -0.23361151       0.01441863      -7.02952361
Ne       0.02203766       0.77399820       0.82583881     -12.03459969       4.43683058      -2.67941871       0.45382680       0.61095384       0.52788396       0.00055291      -0.06114253       0.04636096      -7.10273139
Ne       0.79919285       1.58878150       0.76905579      -7.01526678       8.40019989      -2.49863898       0.53155769       0.53860588       0.40200221      -0.09670488      -0.19267252       0.02568904      -7.05726524
Ne       0.80141826       0.77539472       1.55972844      -3.27234903      -6.36434054       9.03851979       0.36050484       0.47704082       0.53465198      -0.00700739      -0.10721254      -0.21467093      -7.02126367
Ne       1.51266339       1.55827351       1.55283844      13.97446833       5.01211676       7.50304121       0.41447190       0.48092683       0.49767861       0.01261667      -0.16642137      -0.21586700      -6.99220585
