8
Lattice="0.0 1.6275000000000002 1.6275000000000002 1.6275000000000002 0.0 1.6275000000000002 1.6275000000000002 1.6275000000000002 0.0" Properties=species:S:1:pos:R:3:forces:R:3:stresses:R:6:energies:R:1 energy=-52.07190331888935 stress="1.1499999917822832 -0.7047239924829396 -0.1305398680601693 -0.7047239924829396 1.533497738036978 -0.45512714895809075 -0.1305398680601693 -0.45512714895809075 0.1686097390807145" free_energy=-52.07190331888935 pbc="T T T"
Ne       0.05619358       0.00884484      -0.00581309     -16.03723671      -4.77794324      -6.23045333       0.35469954       0.62293189       0.21873337       0.02947477      -0.30169706      -0.05210408      -6.87483786
Ne       0.77992797       0.79924108       0.09691080       1.71682090     -11.70683083     -23.96307435       0.24351994       0.03899128       0.00445994      -0.55322494      -0.22375273      -0.08156056      -6.48209663
Ne       0.69833566      -0.09690108       0.80085177      16.93375373       2.11551276       4.87185597       0.24493482       0.62691535       0.20116232       0.06227409      -0.19829731      -0.07143839      -6.80435302
Ne       1.55806003       0.76873147       0.80588183      23.09706227     -16.48206733     -17.49936349      -0.35095761       0.20391472      -0.28950536      -0.27344338       0.28885409       0.06546972      -6.18948026
Ne      -0.05430440       0.80306870       0.81713299      -6.45330367      -4.55758558       2.16214892       0.54606093       0.73567138       0.69799346       0.01746795       0.03078138      -0.05260770      -7.20421303
Ne       0.78579628       1.51116583       0.81691527      -4.46303816      38.38018223      -8.10827464       0.29145706      -0.59860895      -0.56627111       0.00070203      -0.11033866       0.14977309      -5.96986618
Ne       0.82376724       0.77293280       1.50566913     -22.28625130     -24.40387821      31.17464665      -0.21304500      -0.22397334      -0.24148876       0.54147376       0.44296859      -0.32880150      -6.02613029
Ne       1.56325205       1.49552946       1.55455119       7.49219293      21.43261020      17.59251427       0.03333031       0.12765540       0.14352588      -0.27985143      -0.05905817      -0.33345457      -6.52092606
