8
Lattice="0.0 1.519 1.519 1.519 0.0 1.519 1.519 1.519 0.0" Properties=species:S:1:pos:R:3:forces:R:3:stresses:R:6:energies:R:1 energy=-54.91943871270732 stress="-10.935965484324308 -0.730625856323375 1.5049386578364945 -0.730625856323375 -9.47565356795988 -0.7936356431887633 1.5049386578364945 -0.7936356431887633 -10.467208648226825" free_energy=-54.91943871270732 pbc="T T T"
Ne       0.01986857      -0.00553057       0.02590754       8.89158265     -11.61018502     -21.40368530      -0.71536064      -1.68510136      -1.47347406      -0.80590166       0.00647617      -0.16636252      -6.88082016
Ne       0.83592119       0.76563387      -0.00936548     -25.24517144       9.01563985      -0.12857970      -0.93475831      -1.09704476      -0.57906304      -0.01507692      -0.05824135       0.09280401      -7.46035193
Ne       0.83816851       0.03069739       0.75622102     -11.56887080      -9.44196907       5.35357050      -0.70406647      -0.59699426      -0.58496636       0.12442864      -0.00295445      -0.21098903      -7.72239874
Ne       1.57170240       0.75646329       0.75637081     -33.89473358      15.90554498      46.38989829      -2.20698750      -0.89529919      -1.92849111      -0.04870735       1.30302903       0.06015774      -6.36001325
Ne       0.00967849       0.69846879       0.70600329      22.16767519      39.91023122      25.97108392      -1.17968760      -1.41872800      -1.79642174      -0.65563070      -0.40672217       0.00515154      -6.58604857
Ne       0.75250850       1.50948676       0.78756989       1.32467632     -31.00544972       6.70685096      -0.71737065      -1.08534627      -0.91173249       0.41261600       0.01692024       0.07752890      -7.39530634
Ne       0.73867904       0.71850785       1.60862595      37.22899463      27.73944029     -65.20716580      -3.09758204      -1.33298649      -2.32169667       0.22871148       0.76841882      -0.38147495      -5.53139617
Ne       1.54096895       1.55270113       1.49301007       1.09584702     -40.51325252       2.31802714      -1.38015228      -1.36415325      -0.87136319      -0.03407512      -0.12198763      -0.20744156      -6.98310354
