8
Lattice="0.0 1.55 1.55 1.55 0.0 1.55 1.55 1.55 0.0" Properties=species:S:1:pos:R:3:forces:R:3:stresses:R:6:energies:R:1 energy=-50.43412237635556 stress="-6.648602981912437 -0.5050887024318748 1.9271618611546857 -0.5050887024318748 -8.850489880344409 -4.576223802659368 1.9271618611546857 -4.576223802659368 -9.378693682413946" free_energy=-50.43412237635556 pbc="T T T"
Ne       0.02980285      -0.00829586       0.03886131       2.37559151     -61.63922486     -68.09206240       0.08648477      -3.02642882      -2.57536476      -2.76492002       0.10870158      -0.02130054      -5.10804463
Ne       0.86638179       0.76095080      -0.01404822     -23.56444764      17.16792572     -17.01821297      -0.34691977      -0.58324498      -0.15874870       0.12804255      -0.13988930       0.33743498      -7.32846506
Ne       0.86975277       0.04604608       0.74683154     -13.89595353     -30.91883318      11.93298626      -0.59628088      -0.42193275      -0.02874090       0.29575816       0.02495809      -0.52629996      -7.25077339
Ne       1.58255360       0.74719494       0.74705621     -17.53563728      17.99668917      49.41217431      -2.22587081      -0.62361848      -1.53453100      -0.09058810       1.35719677      -0.40540640      -5.79949782
Ne       0.01451774       0.66020319       0.67150493       4.07579294      87.03875159      66.36980878      -0.44115145      -2.91589057      -2.87396112      -2.48619819      -0.23324327       0.16933694      -4.68404058
Ne       0.74126275       1.48923013       0.79385484      -3.89490195     -14.65701986       0.47343014      -0.07900935      -0.11198471      -0.23884406       0.26087678      -0.12258607       0.05231780      -7.60550006
Ne       0.72051856       0.69026178       1.63793893      40.22548428      19.61711215     -54.51996180      -2.25201059      -0.31220353      -1.54135310       0.10065669       1.12350432      -0.16071787      -5.80707136
Ne       1.53645342       1.55405169       1.46451511      12.21407167     -34.60540073      11.44183768      -0.79384491      -0.85518604      -0.42715006      -0.01985167      -0.19148026       0.04954635      -6.85072947
