8
Lattice="0.0 1.5345 1.5345 1.5345 0.0 1.5345 1.5345 1.5345 0.0" Properties=species:S:1:pos:R:3:forces:R:3:stresses:R:6:energies:R:1 energy=-61.89902258060415 stress="-2.989254819184206 -0.17481508178235594 0.22517844027951955 -0.17481508178235594 -2.7378434038776134 -0.10760678018337282 0.22517844027951955 -0.10760678018337282 -2.8839553673335363" free_energy=-61.89902258060415 pbc="T T T"
Ne       0.00993428      -0.00276529       0.01295377       3.47306836      -2.41414650      -6.45386132      -0.25280493      -0.43043084      -0.39257967      -0.14717909       0.00037261      -0.03494267      -7.74285883
Ne       0.80546060       0.77031693      -0.00468274      -9.88921115       3.52171835       0.07595650      -0.29577193      -0.32768557      -0.22424540      -0.00231538      -0.01162209       0.01751051      -7.84524559
Ne       0.80658426       0.01534869       0.76561051      -4.54303269      -3.68816507       2.30146557      -0.25002554      -0.22721766      -0.22440548       0.02637731      -0.00117920      -0.04320330      -7.89561230
Ne       1.56085120       0.76573165       0.76568540      -8.98981861       5.77528749      14.31599782      -0.51298306      -0.28802010      -0.46318449      -0.00333047       0.22577251       0.00561017      -7.66307877
Ne       0.00483925       0.73673440       0.74050164       8.30173583      14.17607463       8.23689891      -0.34495023      -0.37754654      -0.46461943      -0.11553491      -0.08793649      -0.00118781      -7.67869670
Ne       0.76375425       1.52974338       0.78128495       0.38935404     -12.03155567       1.90307177      -0.25358636      -0.32445760      -0.29029455       0.08117520       0.00365802       0.01514433      -7.83172174
Ne       0.75683952       0.74675393       1.57931298      10.28724046      10.18605226     -21.87585607      -0.69147797      -0.37606287      -0.54270967       0.05489711       0.11681049      -0.08843355      -7.49586789
Ne       1.54548447       1.55135056       1.52150504       0.97066377     -15.52526549       1.49632683      -0.38765481      -0.38642222      -0.28191667      -0.00169655      -0.02069741      -0.04531276      -7.74594076
