27
Lattice="0.0 2.25525 2.25525 2.25525 0.0 2.25525 2.25525 2.25525 0.0" Properties=species:S:1:pos:R:3:forces:R:3:stresses:R:6:energies:R:1 energy=-149.52350100162602 stress="-20.848101847952698 -1.1546047954234147 -1.442258848395265 -1.1546047954234147 -19.611695341383292 -1.4363895876806163 -1.442258848395265 -1.4363895876806163 -21.922059776527856" free_energy=-149.52350100162602 pbc="T T T"
Ne       0.01764910      -0.01323481       0.09723085     -16.39621744      36.71911744     -49.38036066      -0.79129689      -0.77539699      -0.80060601       0.01071450      -0.02768932       0.31541214      -5.73940112
Ne       0.76491631       0.77938439       0.06329924      -9.56520078      -7.79701482     -15.59106440      -0.42768623      -0.32182602      -0.43195506      -0.26647738      -0.14461938       0.01296518      -7.35114943
Ne       1.51363070       1.52633453       0.00750413      48.88543548      12.91968829      69.63368740      -0.97910368      -0.93890092      -1.52123810      -0.12592769      -0.27116544       0.13746926      -4.38949872
Ne       0.76180520      -0.04771058       0.76680494      60.28417597      93.80292192      35.24766523      -0.92527672      -1.06325902      -1.18111219      -0.39451212      -0.28189834      -0.55923085      -4.22857494
Ne       1.53564684       0.79913886       0.70840846      -6.27638849      -6.79949265      40.46324051      -0.70698835      -0.39057498      -0.43862074       0.11049258      -0.02859660       0.35504982      -6.56949595
Ne       2.29699284       1.59605564       0.84929324     -18.78236593     -64.83844331      -7.64902332      -1.18578663      -0.87821398      -0.86888121       0.26659763       0.61179433      -0.52860725      -4.81450821
Ne       1.48955282       0.02579390       1.51077568      50.00134015      82.74791455       0.22548349      -1.25808150      -1.22701273      -0.39581348       0.04647955       0.31002195      -0.64028973      -4.85702362
Ne       2.29072587       0.74012483       1.53309968     -14.23820267      43.51603995      59.41971337      -0.44774083      -0.59892610      -0.83149152      -0.60762623       0.24395654       0.11728636      -5.91633281
Ne       3.13985759       1.57849685       1.55236577    -134.49977787     -12.85840521      -4.83249320      -1.65141047      -2.21840919      -1.30697228      -0.30031927      -0.56280372      -0.17215587      -1.70949755
Ne      -0.01453244       0.77513155       0.77076278      90.03807804     -16.28838433      68.06113527      -1.27651568      -1.01999980      -1.16877082       0.21922772      -0.57886802       0.11020830      -4.19652755
Ne       0.80672213       1.52473713       0.77475220       1.80925905      18.61015994      33.07546701      -0.36721654      -0.28946190      -0.50439961       0.08377426      -0.19819078       0.08236665      -6.99665445
Ne       1.54595730       2.32290767       0.78496871     -17.33967413     -21.41729518      23.21360999      -0.83212416      -0.49447083      -0.57111534       0.14015201       0.20185272      -0.15961446      -6.45859084
Ne       0.78290640       0.82839394       1.54652498       7.57979055       1.47322287       0.92780789      -0.00744503      -0.15229609       0.02618277       0.11230371       0.05648878      -0.12410977      -7.94184765
Ne       1.61246129       1.53776588       1.53089074     -36.68446546      -6.44113000      24.10864047      -0.40246645      -0.20523096      -0.41377088      -0.02812776       0.39166732      -0.00089097      -6.94869886
Ne       2.32902953       2.33921754       1.56078450      13.87227291      -2.71351845      -8.49608037      -0.49861775      -0.24810792      -0.53345139      -0.12743685       0.36393284      -0.20335372      -6.97514210
Ne       1.60167854       0.82057372       2.34477762     -71.18685669     -10.71983694     -74.78203173      -0.74286152      -0.46860172      -1.03486962       0.01558085      -0.72523727      -0.13341025      -5.38604461
Ne       2.31154655       1.54597543       2.38153592      24.48341502      27.66641850     -65.96943836      -0.99055217      -0.46037148      -0.68135143       0.21113028       0.16094849      -0.09633160      -5.75195036
Ne       3.10885016       2.27256907       2.29741739     -32.72275054      32.81609392      14.66546353      -0.48382102      -0.45144547      -0.52717104      -0.05606286      -0.01275484       0.26244606      -6.68173907
Ne      -0.02310053       1.59608819       1.54571344      68.74366752      -5.71253053      19.06700991      -0.80099778      -0.40302266      -0.75373430      -0.05411545      -0.31674275      -0.09195021      -6.02353595
Ne       0.86540427       2.35126478       1.55499227     -33.59240941     -53.02390266       5.89726675      -0.49925528      -0.63720120      -0.75478333       0.32431059      -0.22686580       0.06712647      -5.98949486
Ne       1.53257184       3.13888717       1.54037155      79.27442686     -87.69064439      35.80147914      -1.61519453      -1.61955237      -1.37761035      -0.15613689      -0.51203271       0.12624787      -2.73168409
Ne       0.74203506       1.57272531       2.32551033      39.70442892     -54.17519407     -52.09613974      -0.28080469      -0.89864756      -0.67460988      -0.72433404       0.07947836       0.16542298      -5.67902478
Ne       1.59756243       2.32205627       2.21061248     -12.23463592      -8.23385611      49.33389740      -0.73413764      -0.21532675      -0.63573034      -0.15767012      -0.03759783       0.01253514      -6.41538959
Ne       2.35657466       3.02489036       2.38655025       9.40953601      28.06887268     -38.41881189      -0.41093972      -0.50053209      -0.48657129       0.28292588       0.30325497      -0.24507307      -6.59428485
Ne       1.62285459       1.53291874       3.05341192     -75.17192130      46.80181581     -20.43546954      -1.18850853      -1.01109298      -1.55816758      -0.12160821       0.21057631       0.18404952      -4.00167582
Ne       2.26911704       2.35990618       3.09191527      21.53990650     -67.89437735     -31.31792666      -0.20018647      -1.23715195      -1.20973360      -0.16120788       0.09169083      -0.04002369      -5.00379117
Ne       3.07606560       3.09026321       3.18354059     -36.93486633       1.46176014    -110.17272747      -1.14308560      -0.88666167      -1.28571116       0.02148361      -0.54285950      -0.10814912      -4.17194205
