8
Lattice="0.0 1.5035 1.5035 1.5035 0.0 1.5035 1.5035 1.5035 0.0" Properties=species:S:1:pos:R:3:forces:R:3:stresses:R:6:energies:R:1 energy=-41.10326772788335 stress="-25.051632561428796 8.16076650355796 -2.220480567556018 8.16076650355796 -24.19376976725426 2.111665101113092 -2.220480567556018 2.111665101113092 -19.370733996738295" free_energy=-41.10326772788335 pbc="T T T"
Ne       0.02647365      -0.01985221       0.14584627     -87.46883206      39.60075568     -64.61913601      -4.23135084      -4.22908580      -2.89507698      -0.42377915      -1.24207634       1.46530367      -3.85695844
Ne       0.75987447       0.78157659       0.09494887      21.57594713      19.12623030      -3.21819391      -2.56690728      -1.70870659      -2.40231373      -0.87795585       0.56023370       0.05171103      -6.04790013
Ne       0.72044606      -0.03549820       0.78625619      47.92008570      25.01614486      48.54933288      -3.37819584      -1.17285687      -2.74771376      -0.19337108      -1.54790303       0.18214525      -5.78045511
Ne       1.53020780       0.70343412       0.76270741     -72.82296197      32.17785673      36.10993602      -4.21470466      -3.78358698      -1.77095547       0.97552149      -0.67462347       2.19960193      -4.61062548
Ne      -0.02152974       0.81120830       0.67511269     -10.00541762     -22.39547200      82.73946504      -2.54811936      -3.73864001      -2.98929447       1.06312721       1.14910090       0.43316170      -4.75736039
Ne       0.73298926       1.61908346       0.88643986      47.96502533     -67.95484665     -46.33001409      -4.22740838      -3.92976422      -2.22695474       0.18648353      -0.86563042       2.41654490      -4.24597134
Ne       0.68432923       0.81369085       1.49116353      43.56708524     -63.25455907     -20.73479168      -2.35721129      -2.85536717      -1.46646231      -0.20247319       0.61054814       1.27877359      -5.97599872
Ne       1.49858881       1.49768725       1.52464952       9.26906826      37.68389015     -32.49659825      -1.52773492      -2.77576213      -2.87196254       1.58411215      -0.21013004       0.13352442      -5.82799812
