8
Lattice="0.0 1.5965 1.5965 1.5965 0.0 1.5965 1.5965 1.5965 0.0" Properties=species:S:1:pos:R:3:forces:R:3:stresses:R:6:energies:R:1 energy=-59.72747634690307 stress="3.606116452397162 -0.13327717440039807 -0.28970363299735613 -0.13327717440039807 3.121471530425185 -0.6606308205472129 -0.28970363299735613 -0.6606308205472129 3.205616178702554" free_energy=-59.72747634690307 pbc="T T T"
Ne       0.00993428      -0.00276529       0.01295377      -4.36343558      -9.93723574     -11.57409807       0.54836978       0.27570072       0.28286681      -0.30390337      -0.03753347      -0.01907697      -7.40130996
Ne       0.80546060       0.77031693      -0.00468274      -1.53554038       5.02341284     -13.32077613       0.44371834       0.43638043       0.34178317       0.04339010      -0.03076280       0.00453605      -7.46179358
Ne       0.80658426       0.01534869       0.76561051       0.54869882     -15.75148114       4.68470594       0.31564430       0.29345990       0.42301647       0.05253864      -0.03841826      -0.05382723      -7.37880394
Ne       1.56085120       0.76573165       0.76568540      10.25665669       0.23103186       2.99531338       0.33392621       0.37179116       0.45362857      -0.05106288      -0.06760811      -0.11677415      -7.44202114
Ne       0.00483925       0.73673440       0.74050164      -9.23098235      12.75271030       9.85306608       0.42206925       0.17566846       0.25571190      -0.27523943       0.03826984       0.04493110      -7.29169149
Ne       0.76375425       1.52974338       0.78128495      -3.45687285       7.07827389      -2.76652884       0.44990637       0.50313637       0.46110547      -0.04627521      -0.09071651      -0.00753421      -7.54493518
Ne       0.75683952       0.74675393       1.57931298       0.93783724       1.35735680       2.70606150       0.59445615       0.57034162       0.52872325      -0.02850113       0.01870978       0.00319892      -7.65154149
Ne       1.54548447       1.55135056       1.52150504       6.84363841      -0.75406882       7.42225614       0.49802605       0.49499286       0.45878055      -0.05157754      -0.08164410       0.01126932      -7.55537956
