8
Lattice="0.0 1.5035 1.5035 1.5035 0.0 1.5035 1.5035 1.5035 0.0" Properties=species:S:1:pos:R:3:forces:R:3:stresses:R:6:energies:R:1 energy=-50.12865498311761 stress="-18.130156500794886 -1.2990684409035063 2.107164143418679 -1.2990684409035063 -14.989718118682756 -0.4739986428358533 2.107164143418679 -0.4739986428358533 -16.63905761717633" free_energy=-50.12865498311761 pbc="T T T"
Ne       0.01986857      -0.00553057       0.02590754      15.96505272      -5.13232410     -17.65915372      -1.34839585      -2.23689804      -1.95947304      -0.73360798      -0.06212536      -0.32552089      -6.59751482
Ne       0.83592119       0.76563387      -0.00936548     -33.57409361       7.30062858       9.30443246      -1.61642941      -1.83062351      -1.08938721      -0.08064875      -0.05785697      -0.00827604      -7.06365889
Ne       0.83816851       0.03069739       0.75622102     -15.55599924      -1.47688498       3.18001147      -1.11360626      -1.04099826      -1.10278757       0.11049316      -0.05750284      -0.21374238      -7.55716114
Ne       1.57170240       0.75646329       0.75637081     -58.14978397      22.49995742      64.77857146      -3.42927410      -1.46461115      -3.09995278      -0.11714737       1.98828713       0.27111602      -5.48134637
Ne       0.00967849       0.69846879       0.70600329      38.76705405      41.65649489      26.72899848      -2.07249180      -1.82424224      -2.46799455      -0.57194904      -0.63398643      -0.04643938      -6.16642866
Ne       0.75250850       1.50948676       0.78756989       4.30662873     -49.63375195      12.79146396      -1.32685559      -2.04330379      -1.62479024       0.67043463       0.03687748       0.12060486      -6.83430697
Ne       0.73867904       0.71850785       1.60862595      53.69221652      39.81850224     -96.34009180      -5.00040443      -2.38819312      -3.86463807       0.35665530       1.09337367      -0.65028087      -3.97231299
Ne       1.54096895       1.55270113       1.49301007      -5.45107519     -55.03262211      -2.78423229      -2.22269907      -2.16084800      -1.43003415      -0.10822859      -0.19990253      -0.44652977      -6.45592513
