27
Lattice="0.0 2.25525 2.25525 2.25525 0.0 2.25525 2.25525 2.25525 0.0" Properties=species:S:1:pos:R:3:forces:R:3:stresses:R:6:energies:R:1 energy=-46.405510088223906 stress="-40.583586626987966 7.676918356984535 -1.980338217959685 7.676918356984535 -46.09481470924909 -4.482426272084177 -1.980338217959685 -4.482426272084177 -38.26812124288394" free_energy=-46.405510088223906 pbc="T T T"
Ne      -0.01870702       0.04374024       0.01306925     -10.04057372      98.54099239     187.42544802      -1.79304288      -2.67889210      -3.43208129      -1.79839178      -0.07958123      -0.82730108       2.15109912
Ne       0.72105449       0.62579316       0.05479509      79.25848087     243.33305768      55.68564186      -1.17270564      -2.59687595      -5.43973161      -0.41633538      -0.40716543      -0.37692407       5.00936673
Ne       1.61762382       1.45915441       0.09835746    -129.38462915     118.56864571     -43.33933133      -2.24715234      -1.78138973      -1.98770138       0.99197365       0.01570011       0.78836329      -0.17456632
Ne       0.74920638       0.15787683       0.81110933      85.74338000    -213.19435875      47.19814432      -0.96361307      -2.20684823      -3.42095256       0.39381349       0.22667712       0.84490518       1.47052259
Ne       1.52984710       0.84926427       0.78166769       6.43803806     -79.90840274      74.59724567      -0.38358118      -1.01534719      -0.88695783       0.92526652       0.24142604      -0.02995227      -5.03601080
Ne       2.33274907       1.55456766       0.76569231      23.87564016      54.91515426      85.14418319      -0.51066695      -0.79606578      -1.02232349      -0.76811049      -0.20220913       0.03537905      -5.32780895
Ne       1.58805352       0.04863930       1.57128852    -159.12176484     145.65772562     -26.27668927      -2.23632881      -1.92218948      -1.22709710      -0.40077260      -0.49382600       1.53723632      -0.76363776
Ne       2.43375542       0.69361145       1.52218208    -431.08164262     413.08817932     -54.07604323      -5.23575791      -5.22386783      -1.61923756       0.84381922      -0.59414607       4.39987136      10.83716818
Ne       3.14947923       1.47941411       1.64386938     -44.02943028      43.49025740       1.79347467      -0.45998238      -0.45442241      -0.22283483      -0.30493011      -0.06977982       0.29175583      -6.60611552
Ne       0.04276231       0.76413960       0.80705197    -105.96216753      79.88864070     -67.91567068      -2.36267747      -1.77797379      -1.65089526       0.57334779      -0.45182671       0.16368872      -1.01609390
Ne       0.73980322       1.46108880       0.82643486      15.13389926      49.49647852       1.79371213      -0.57178448      -0.39656945      -0.07883594       0.20663134      -0.21945554      -0.07632319      -6.84167973
Ne       1.60658594       2.33186649       0.77368260     -30.77584250     -20.20736268      23.76791011      -1.00890900      -0.53932533      -0.99824117       0.03893965      -0.31365297      -0.26812445      -5.36016900
Ne       0.64737133       0.72493555       1.52206950     223.84505095     225.38360714     130.63568952      -2.88144521      -2.98445264      -2.34027329      -0.73220809      -0.31670421      -2.17352511       4.21505004
Ne       1.56402264       1.63310211       1.51882237      -5.43870230     -76.70892220     -54.42145591      -0.01465769      -0.90121649      -1.11314626      -0.75136231       0.06380441      -0.16101345      -5.23192374
Ne       2.27819087       2.38233658       1.54239582    -109.14280635    -215.51900837      29.63571593      -3.51871943      -2.87488590      -0.93710406       0.53369325       0.54210527      -2.22223920       2.54259735
Ne       1.46788323       0.84810884       2.27354991      43.99715206       1.25262586      -7.58810607      -0.49904043      -0.89174319       0.05868457       0.06928310       0.11886917      -0.05555928      -6.46167917
Ne       2.29131175       1.48798881       2.34652626       8.63448887       9.19452636     -37.32709886      -0.26390611      -0.11949041      -0.34856177       0.08408342      -0.06476419       0.04252761      -7.22310086
Ne       3.16442088       2.30246972       2.34878205     -57.46454226     -28.30308254     -14.13574213      -0.46129527      -0.31976491      -0.36644797      -0.01247843      -0.19889969      -0.35487772      -6.50998981
Ne      -0.02828678       1.69019647       1.64016713     153.38108752    -260.46600880    -145.62779012      -2.38471038      -3.49001171      -2.99358577      -1.54414227      -0.25844099       1.23587099       4.38587042
Ne       0.73927242       2.35670046       1.60638949     386.33317162    -491.25453464    -132.89773264      -4.95935023      -6.56963580      -2.79865877      -0.83495182      -0.56510579       4.62243431      14.04523019
Ne       1.57557712       3.05451058       1.54025798       8.20951909       5.52306104      11.62966711      -1.03812133      -1.02170344      -0.48984888      -0.06542763      -0.05678044       0.85929547      -5.63690998
Ne       0.81860860       1.57664498       2.27359064     -10.39913768      23.70439767      10.79289832      -0.78101424      -0.69059133      -0.05592477       0.24387727       0.16099982       0.02607506      -6.60314191
Ne       1.57681571       2.26412112       2.19706060     -10.74364068      56.84897096     107.33146389      -0.76737433      -0.98118432      -1.37314089      -0.59304781       0.24943260      -0.08084474      -4.14379632
Ne       2.33543178       3.15707208       2.35151384      73.42870077    -139.55979668     -46.98085858      -1.70453971      -1.72884879      -1.00998483      -0.68539254       0.22349607       0.93660047      -2.28273764
Ne       1.63814104       1.65497098       3.12121184     -82.27919328     -83.71729558     -52.87713205      -0.87556523      -1.00781058      -1.06917753      -0.38942807      -0.01006416      -0.71428955      -4.19789893
Ne       2.28639976       2.32216578       3.01305761      52.64496122      38.64696123     -24.38295320      -0.65479025      -0.95428412      -0.35592836      -0.10980463       0.09475290      -0.77381217      -5.81180793
Ne       3.09782861       3.09454918       3.11057742      24.94050273       1.30549114     -59.58459067      -0.83285467      -0.16942380      -1.08813265       0.01962899       0.38480066       0.00770100      -5.83334645
