8
Lattice="0.0 1.5655000000000001 1.5655000000000001 1.5655000000000001 0.0 1.5655000000000001 1.5655000000000001 1.5655000000000001 0.0" Properties=species:S:1:pos:R:3:forces:R:3:stresses:R:6:energies:R:1 energy=-58.80691220589756 stress="-0.07445676015768891 -0.23157297749936243 0.2424528341097994 -0.23157297749936243 -1.042168128724361 -1.5681283766317136 0.2424528341097994 -1.5681283766317136 -1.0558086805997835" free_energy=-58.80691220589756 pbc="T T T"
Ne       0.01986857      -0.00553057       0.02590754      -1.41099899     -22.33332126     -26.89001400       0.30768078      -0.74159118      -0.63052412      -0.96125295       0.02394596      -0.00315324      -6.98015228
Ne       0.83592119       0.76563387      -0.00936548     -10.76202275       9.57880762     -14.13979181       0.11271561       0.03917285       0.10280412       0.08240097      -0.07034173       0.13124243      -7.61211501
Ne       0.83816851       0.03069739       0.75622102      -5.00836932     -21.01647943       7.65841198      -0.08476803      -0.01392463       0.19483646       0.14359440       0.00092829      -0.20494382      -7.50585076
Ne       1.57170240       0.75646329       0.75637081       2.89531071       6.60372694      17.55260624      -0.43457061      -0.03114250      -0.16126485      -0.02923377       0.26505353      -0.24647115      -7.23023794
Ne       0.00967849       0.69846879       0.70600329      -2.94461853      35.57224689      25.73473613       0.08126984      -0.77435976      -0.72741664      -0.84821581      -0.05584541       0.08494423      -6.78417488
Ne       0.75250850       1.50948676       0.78756989      -3.57887163      -2.70205789      -1.81627872       0.19540380       0.27076689       0.16079979       0.03062611      -0.09317773       0.00879241      -7.77117677
Ne       0.73867904       0.71850785       1.60862595      11.93306170       9.20994177     -17.35750447      -0.23965972       0.24238929      -0.07012359       0.02796816       0.27052406      -0.04564370      -7.42461344
Ne       1.54096895       1.55270113       1.49301007       8.87650881     -14.91286464       9.25783465      -0.01252844      -0.03347908       0.07508015      -0.01401547      -0.09863412       0.04365986      -7.49859111
