8
Lattice="0.0 1.5810000000000002 1.5810000000000002 1.5810000000000002 0.0 1.5810000000000002 1.5810000000000002 1.5810000000000002 0.0" Properties=species:S:1:pos:R:3:forces:R:3:stresses:R:6:energies:R:1 energy=-61.089575455431245 stress="2.893320162589232 -0.08617802673105655 -0.15286558138972106 -0.08617802673105655 2.5028431729411724 -0.5424529002699463 -0.15286558138972106 -0.5424529002699463 2.5631727459079197" free_energy=-61.089575455431245 pbc="T T T"
Ne       0.00993428      -0.00276529       0.01295377      -3.42716034      -8.88270031     -10.97049296       0.44658541       0.18428703       0.19680314      -0.27297797      -0.01569227      -0.00851798      -7.56377298
Ne       0.80546060       0.77031693      -0.00468274      -2.74306487       5.09912016     -11.77113469       0.36590874       0.35561332       0.30118104       0.03641607      -0.02514088       0.02104674      -7.65184797
Ne       0.80658426       0.01534869       0.76561051      -0.11526861     -14.41287354       4.56048952       0.26094248       0.25921588       0.36203479       0.04768930      -0.02049215      -0.05364653      -7.58508137
Ne       1.56085120       0.76573165       0.76568540       7.90879897       0.80778745       4.54264608       0.25761107       0.30910764       0.35659112      -0.03187959      -0.02695208      -0.10144040      -7.61148143
Ne       0.00483925       0.73673440       0.74050164      -7.09531560      13.16451576       9.61582285       0.35130633       0.11567589       0.17524720      -0.24468146       0.02267485       0.03760628      -7.47967799
Ne       0.76375425       1.52974338       0.78128495      -3.00275181       4.72778471      -2.29544865       0.37499706       0.42714128       0.38143946      -0.03103799      -0.06327973      -0.00578449      -7.72428782
Ne       0.75683952       0.74675393       1.57931298       2.17446273       2.48201371      -0.47483820       0.44913594       0.46910671       0.42223903      -0.01732746       0.03379547       0.00496288      -7.77630175
Ne       1.54548447       1.55135056       1.52150504       6.30029953      -2.98564794       6.79295605       0.38683314       0.38269544       0.36763696      -0.02865380      -0.05777880       0.01959547      -7.69712413
