8
Lattice="0.0 1.55 1.55 1.55 0.0 1.55 1.55 1.55 0.0" Properties=species:S:1:pos:R:3:forces:R:3:stresses:R:6:energies:R:1 energy=-58.712721269814246 stress="-2.438928803667846 -0.28057406764029347 0.5850641161814404 -0.28057406764029347 -2.8938900074469767 -1.349128868634024 0.5850641161814404 -1.349128868634024 -3.1198929743367563" free_energy=-58.712721269814246 pbc="T T T"
Ne       0.01986857      -0.00553057       0.02590754       0.79557559     -19.79356216     -25.71359491       0.07397940      -0.96718758      -0.83418866      -0.91999099       0.03477651      -0.02556486      -7.03689177
Ne       0.83592119       0.76563387      -0.00936548     -14.30411548       9.84764500     -11.13412692      -0.11640960      -0.21234041      -0.02747786       0.06147895      -0.06494539       0.14346034      -7.67945569
Ne       0.83816851       0.03069739       0.75622102      -6.54424497     -18.58565991       7.35357896      -0.21743140      -0.12346434       0.02781371       0.14013021       0.01293830      -0.20720781      -7.65704632
Ne       1.57170240       0.75646329       0.75637081      -5.25021625       8.50855183      24.12972686      -0.81013597      -0.21914828      -0.54760024      -0.01919785       0.49519008      -0.18094236      -7.14063869
Ne       0.00967849       0.69846879       0.70600329       2.56338529      36.89071212      25.63355208      -0.17705798      -0.91773061      -0.96954129      -0.79434963      -0.13548094       0.06523142      -6.83760366
Ne       0.75250850       1.50948676       0.78756989      -2.43504032      -8.93696947      -0.07854570      -0.00040742      -0.00765055      -0.07083345       0.11309362      -0.05435550       0.02509207      -7.79405968
Ne       0.73867904       0.71850785       1.60862595      17.60397700      13.34036436     -28.06831123      -0.86507932      -0.09891392      -0.54924981       0.07240661       0.38213760      -0.10747314      -7.11181457
Ne       1.54096895       1.55270113       1.49301007       7.57067914     -21.27108178       7.87772085      -0.32638652      -0.34745432      -0.14881537      -0.00269981      -0.08519654       0.00683028      -7.45521088
