8
Lattice="0.0 1.5345 1.5345 1.5345 0.0 1.5345 1.5345 1.5345 0.0" Properties=species:S:1:pos:R:3:forces:R:3:stresses:R:6:energies:R:1 energy=-60.54031589160617 stress="-3.7104446777342446 0.055813202222857204 -0.17472699409790352 0.055813202222857204 -3.8964551510069096 0.37027440686086505 -0.17472699409790352 0.37027440686086505 -4.162657665367889" free_energy=-60.54031589160617 pbc="T T T"
Ne       0.03381051      -0.00931875       0.00065640      -9.31774450       0.24519208       8.79959269      -0.31930575      -0.23424557      -0.37371326       0.01650496       0.13201143      -0.03903223      -7.80461235
Ne       0.78315033       0.75922154       0.00004131       1.57990997       1.72451683      13.93173443      -0.23789475      -0.37963784      -0.40366895       0.04921045      -0.02818995      -0.02501279      -7.76733704
Ne       0.77498219      -0.03509449       0.79535316      -0.56206640      19.16746441      -0.51864166      -0.35461217      -0.46033140      -0.34711494       0.05558555       0.00214153      -0.04466692      -7.70603937
Ne       1.56200997       0.76249142       0.77156903     -24.87503960      12.72507472      12.42271011      -0.64891462      -0.68908383      -0.44558814      -0.14718966       0.08313165       0.14243907      -7.43440874
Ne       0.01010599       0.76977287       0.77014502       9.98689690     -11.81207493       7.87717266      -0.35520028      -0.34354408      -0.33510251       0.04669142      -0.06179756       0.02275917      -7.75650463
Ne       0.74593517       1.56109161       0.77747762      28.48609880     -24.76454718       9.46033814      -0.78727226      -0.75229356      -0.96004739       0.20851703      -0.11371785       0.15115586      -7.11557176
Ne       0.78048920       0.74446951       1.58301399       6.76313741      10.16170736     -26.99327138      -0.47809561      -0.53893656      -0.67393904       0.20965028       0.06701546      -0.07652360      -7.47061949
Ne       1.55308671       1.54225720       1.59058144     -12.06119258      -7.44733329     -24.97963498      -0.52914924      -0.49838231      -0.62348344      -0.06869561      -0.25532170      -0.07530536      -7.48522250
