8
Lattice="0.0 1.5655000000000001 1.5655000000000001 1.5655000000000001 0.0 1.5655000000000001 1.5655000000000001 1.5655000000000001 0.0" Properties=species:S:1:pos:R:3:forces:R:3:stresses:R:6:energies:R:1 energy=-51.45695860949397 stress="-3.359533955510168 -0.5042194132314225 1.1142577547654877 -0.5042194132314225 -6.5823774674723765 -4.764556352615828 1.1142577547654877 -4.764556352615828 -6.556988864430351" free_energy=-51.45695860949397 pbc="T T T"
Ne       0.02980285      -0.00829586       0.03886131       0.18558563     -64.95908349     -69.23984007       0.32595854      -2.71938750      -2.31720149      -2.75849170       0.09162685       0.01912157      -5.07277860
Ne       0.86638179       0.76095080      -0.01404822     -18.49096080      15.93230040     -19.38922870      -0.07887528      -0.26629527      -0.05673604       0.15908057      -0.14287550       0.29478492      -7.29645771
Ne       0.86975277       0.04604608       0.74683154     -12.26853468     -32.52453523      11.88406154      -0.48154590      -0.34848850       0.12377096       0.29405489       0.00417833      -0.51557506      -7.07204871
Ne       1.58255360       0.74719494       0.74705621      -2.94024869      15.32732351      36.16350613      -1.54996171      -0.42152631      -0.88727787      -0.08264719       0.83635343      -0.51413267      -6.17174021
Ne       0.01451774       0.66020319       0.67150493      -2.30910344      85.10234376      66.48014384      -0.12246628      -2.73022696      -2.54388634      -2.51346234      -0.10904463       0.18296830      -4.67756232
Ne       0.74126275       1.48923013       0.79385484      -5.28985324      -7.25635819      -1.99652782       0.11039787       0.22069294       0.02568302       0.11636936      -0.16884640       0.02096394      -7.62423326
Ne       0.72051856       0.69026178       1.63793893      27.91199205      13.76935825     -36.70056297      -1.18139355       0.12057930      -0.73977691       0.04546393       0.79285421      -0.08192897      -6.53622869
Ne       1.53645342       1.55405169       1.46451511      13.20112317     -25.39134901      12.79844805      -0.38164765      -0.43772516      -0.16156419      -0.02492387      -0.18998855       0.08957856      -7.00590910
