27
Lattice="0.0 2.30175 2.30175 2.30175 0.0 2.30175 2.30175 2.30175 0.0" Properties=species:S:1:pos:R:3:forces:R:3:stresses:R:6:energies:R:1 energy=-181.61651902802564 stress="-9.439257826640725 0.698900953119871 -0.6161814131005686 0.698900953119871 -7.867211345430316 -0.25300001022211316 -0.6161814131005686 -0.25300001022211316 -8.942189875329323" free_energy=-181.61651902802564 pbc="T T T"
Ne       0.00004434      -0.01158176      -0.04464265       0.48990585       8.71853857      12.40569665      -0.11289268      -0.19311779      -0.31345996       0.03913627      -0.11997545       0.00486646      -7.26434026
Ne       0.77448469       0.75986554      -0.01924541       9.40399358       0.87511909      11.31221297      -0.15650176      -0.12558116      -0.12669185      -0.03828035      -0.01912508      -0.05815953      -7.34970354
Ne       1.48930675       1.53036512      -0.00962722      43.95675979      -9.70320792       9.59720459      -0.55763329       0.00326590      -0.45147199       0.01077845       0.10803197       0.01481381      -6.51674131
Ne       0.74908210       0.02543564       0.84460469      29.09111739      11.75225099     -13.05401155      -0.28094742      -0.20273616      -0.07837410      -0.03688209       0.09496507      -0.10892551      -7.25339953
Ne       1.56186729       0.80330015       0.84791263      -3.08018767      -8.41933577     -35.22573282       0.09433546      -0.08074124      -0.20649278      -0.12142668      -0.02632319      -0.02812061      -7.29878526
Ne       2.34223076       1.61170919       0.73897115     -38.47193600     -22.77454468      28.19647121      -0.45486396      -0.13403200      -0.30317442       0.01809430       0.38249828      -0.12479284      -6.74196905
Ne       1.54451500       0.05190316       1.57701085       0.14389379      -1.75367427     -15.50620491      -0.44971068      -0.23193741      -0.25942969       0.13208714      -0.01048770       0.15143415      -7.09789867
Ne       2.32627832       0.81172584       1.56522038       5.36422131      -9.31327911     -10.04140493      -0.39259208      -0.29219158      -0.09550625      -0.05069227      -0.19968285       0.22551363      -7.24546372
Ne       3.12065470       1.53579042       1.55835108     -17.29131277      -3.19884300     -21.85688142      -0.15856530      -0.21866379      -0.49610946      -0.10175593      -0.17760932      -0.07283657      -7.21920210
Ne       0.01313644       0.75507101       0.69132893       9.45864705      10.08625880       4.95434665      -0.27433728      -0.00465735      -0.19021236       0.01812372       0.20256984       0.13407022      -7.39123582
Ne       0.77169649       1.64820731       0.66811560      -7.23671587     -59.88024131      51.59551835      -0.67364339      -0.53058917      -0.52578778       0.20071651       0.18745052       0.09531877      -5.20541191
Ne       1.51346883       2.31590743       0.78577262      15.70010041     -15.95403421     -31.25791732      -0.25581595      -0.52879648      -0.24143994      -0.41627627      -0.05462052      -0.21495830      -6.74033972
Ne       0.82021845       0.81669590       1.60215242     -24.13576100      11.37486011     -33.51512195      -0.37316956      -0.07671874      -0.37303370       0.02952495       0.03950835      -0.04912861      -6.72867824
Ne       1.60557603       1.52374190       1.54774971     -27.31411137      37.32318878      -9.54317846      -0.25895403      -0.45486458      -0.39940461      -0.09430330      -0.17780869      -0.00144141      -6.44841054
Ne       2.30500390       2.34245678       1.53496748      12.24456419     -19.84498667       5.26855968      -0.50647891      -0.35561009      -0.29823200       0.02657551       0.03165658       0.29319705      -6.67051178
Ne       1.51307754       0.85169001       2.31898789      23.34210815     -30.60369787       1.05207806      -0.43251650      -0.24163571      -0.69771863      -0.09155661      -0.16257893       0.03565104      -6.60533624
Ne       2.29945081       1.58299081       2.27656645       8.47718995      -3.94954499      14.72136340      -0.36070088      -0.19130757      -0.35900412      -0.05886850      -0.27462111      -0.06946619      -7.21150092
Ne       3.07986378       2.29692337       2.24602916      11.53151369      18.94384925      -1.21549775      -0.51399295      -0.92834912      -0.64071869       0.36362786       0.13065788       0.32519283      -5.58947412
Ne      -0.10622929       1.54769271       1.52375254      50.32791189      -4.22006724      19.17090325      -0.29084657      -0.35110990      -0.36850362      -0.06137560      -0.22011383      -0.15074300      -6.25471250
Ne       0.74853173       2.35577394       1.51403980      16.05565268     -18.02548277       9.92820766      -0.18565441       0.00762170      -0.28332415      -0.11153881      -0.01296476       0.04303249      -7.26067684
Ne       1.61774552       3.03210659       1.43826519     -33.49980694      23.77288643      52.86877684      -0.56498249      -1.02969131      -0.46594853      -0.16464727      -0.09650082       0.07886593      -5.14345243
Ne       0.76595397       1.56589715       2.39138814      16.90990389      17.81488530     -47.08651709      -0.58150894      -0.38413203      -0.41056105       0.07509283       0.27684245       0.11338497      -6.15534143
Ne       1.53025013       2.30995609       2.31821041       1.51125573       7.45563837       1.84581994       0.01511980       0.04277554       0.19314671       0.00081083       0.01127662       0.08841116      -8.03171945
Ne       2.42168425       3.02764638       2.33859005     -47.18482963      24.30646177       4.02062253      -0.29978273      -0.26234571      -0.19030427      -0.06168046       0.07283708       0.14611955      -6.66726305
Ne       1.54909081       1.51160012       3.08467542       2.57181458      42.42244365     -14.95516910      -0.57993863      -0.44611346      -0.68375842      -0.02110469      -0.37178120      -0.24670406      -6.03623414
Ne       2.32938120       2.29079349       3.10000886     -28.47287627      22.76220112      -8.47121969      -0.30275769      -0.22722279      -0.17559226       0.06597859      -0.09892659       0.24498946      -7.04352736
Ne       3.12655420       3.12997924       3.08136727     -29.89301641     -29.96764239      14.79107520      -0.52992499      -0.42872935      -0.50108196       0.19684187      -0.13135602      -0.17068396      -6.44518907
