16
Lattice="9.1 0.0 0.0 0.0 9.1 0.0 0.0 0.0 9.1" Properties=species:S:1:pos:R:3:forces:R:3:stresses:R:6:energies:R:1 energy=-1.229472265469323 stress="2.1883228046644885e-06 -2.0149594969213967e-06 5.549106391838719e-05 -2.0149594969213967e-06 6.202021027401607e-06 -0.0001799963499199989 5.549106391838719e-05 -0.0001799963499199989 0.00961741813216043" free_energy=-1.229472265469323 pbc="T T T"
Na      -0.01667031      -0.00225067      -0.08544784      -0.02023499       0.02540404      -1.50691205       0.00000034       0.00000047       0.00151120      -0.00002639       0.00002196      -0.00000039      -0.21340822
Cl       0.06561083      -0.07173742       2.46633011      -0.00181113       0.00126542       0.00630507       0.00000008       0.00000005       0.00012279      -0.00000097       0.00000063      -0.00000006      -0.01001885
Na       0.02011526      -0.04981152       4.95768191       0.00014966       0.00038541      -0.01289489       0.00000004       0.00000004       0.00011310       0.00000187      -0.00000222      -0.00000004      -0.00878874
Cl      -0.03636030       0.02205816       7.59168832       0.02189645      -0.02705488       1.51350187       0.00000030       0.00000046       0.00150152      -0.00002356       0.00001911      -0.00000037      -0.21217811
Na       0.00166158       4.95528298       0.02156233      -0.00332081       0.02114248      -0.58340788       0.00000002       0.00000077       0.00074382      -0.00002155       0.00000264      -0.00000012      -0.09257033
Cl      -0.02384639       4.99923478       2.54700005       0.00024312      -0.00060868       0.01288991       0.00000001       0.00000002       0.00013971       0.00000110      -0.00000081      -0.00000001      -0.01215030
Na      -0.02991484       5.00036101       4.96487568       0.00049757       0.00013368      -0.00971426       0.00000001       0.00000000       0.00014425       0.00000030       0.00000042       0.00000000      -0.01272279
Cl      -0.00625737       5.01026282       7.46044884       0.00258013      -0.02066749       0.58023224       0.00000002       0.00000075       0.00074836      -0.00002235       0.00000388      -0.00000011      -0.09314282
Na       4.98644712      -0.00944736      -0.02550620       0.01222576       0.01639839      -1.03387935       0.00000016       0.00000030       0.00114163      -0.00001840      -0.00001366       0.00000022      -0.15109928
Cl       4.95249551      -0.05684869       2.49386019       0.00125536       0.00370932       0.01282915       0.00000003       0.00000031       0.00014111       0.00000366       0.00000038       0.00000009      -0.01236797
Na       4.98923772       0.08925467       4.90260930      -0.00060976      -0.00373943      -0.02391849       0.00000002       0.00000033       0.00012484       0.00000355       0.00000147       0.00000007      -0.01031092
Cl       5.00450906       0.01481778       7.55438535      -0.01287137      -0.01636828       1.04496869       0.00000015       0.00000031       0.00112536      -0.00001851      -0.00001257       0.00000020      -0.14904223
Na       5.02007429       4.96623145       0.00000039      -0.01650342       0.02902150      -0.75253587       0.00000037       0.00000111       0.00089603      -0.00002995       0.00001756      -0.00000064      -0.11440480
Cl       5.02169410       4.98745967       2.53084047      -0.00138649       0.00085636      -0.00005296       0.00000009       0.00000007       0.00012008       0.00000244      -0.00000225      -0.00000007      -0.00967969
Na       4.92527637       5.06924739       5.05870712       0.00250695      -0.00199222       0.00982394       0.00000013       0.00000009       0.00013384       0.00000059      -0.00000043      -0.00000011      -0.01143105
Cl       4.98657291       5.02445363       7.50191882       0.01538296      -0.02788564       0.74276488       0.00000041       0.00000113       0.00090979      -0.00003181       0.00001938      -0.00000067      -0.11615616
