16
Lattice="10.4 0.0 0.0 0.0 10.4 0.0 0.0 0.0 10.4" Properties=species:S:1:pos:R:3:forces:R:3:stresses:R:6:energies:R:1 energy=-0.13520835076233736 stress="8.460029298015535e-07 -3.286655241990496e-07 1.135553116599458e-06 -3.286655241990496e-07 1.7764561998067981e-06 7.960047811494269e-06 1.135553116599458e-06 7.960047811494269e-06 0.0011815301482135923" free_energy=-0.13520835076233736 pbc="T T T"
Na      -0.02500547      -0.00337601      -0.12817177       0.00118264      -0.00088038       0.00397210       0.00000009       0.00000006       0.00006725      -0.00000188       0.00000206      -0.00000007      -0.00719747
Cl       0.09841625      -0.10760614       2.44949516      -0.00259153       0.00178776       0.00924970       0.00000012       0.00000007       0.00008010      -0.00000085       0.00000048      -0.00000009      -0.00962908
Na       0.03017289      -0.07471729       4.93652287       0.00039871       0.00036662      -0.01775284       0.00000006       0.00000005       0.00007159       0.00000167      -0.00000207      -0.00000005      -0.00801141
Cl      -0.05454046       0.03308724       7.63753248       0.00101018      -0.00127400       0.00453105       0.00000003       0.00000005       0.00005875       0.00000064      -0.00000049      -0.00000004      -0.00557981
Na       0.00249236       4.93292447       0.03234350      -0.00057141       0.00121512       0.02385161       0.00000001       0.00000004       0.00005425       0.00000062      -0.00000054      -0.00000002      -0.00473212
Cl      -0.03576958       4.99885217       2.57050007       0.00031514      -0.00086911       0.02040726       0.00000001       0.00000003       0.00009797       0.00000107      -0.00000082      -0.00000002      -0.01298407
Na      -0.04487226       5.00054152       4.94731353       0.00077698       0.00019706      -0.01569328       0.00000001       0.00000000       0.00010250       0.00000030       0.00000040       0.00000000      -0.01383504
Cl      -0.00938605       5.01539423       7.44067326      -0.00052070      -0.00054307      -0.02856559       0.00000001       0.00000001       0.00005878      -0.00000015       0.00000068       0.00000000      -0.00558308
Na       4.97967068      -0.01417104      -0.03825930      -0.00054009      -0.00076359       0.01722496       0.00000002       0.00000004       0.00006324      -0.00000143      -0.00000103       0.00000003      -0.00642597
Cl       4.92874326      -0.08527303       2.49079029       0.00201811       0.00616378       0.01978577       0.00000005       0.00000053       0.00009867       0.00000428       0.00000055       0.00000015      -0.01322024
Na       4.98385658       0.13388201       4.85391395      -0.00111952      -0.00602099      -0.03449218       0.00000003       0.00000055       0.00008401       0.00000437       0.00000158       0.00000012      -0.01045226
Cl       5.00676359       0.02222667       7.58157803      -0.00035850       0.00062080      -0.00251855       0.00000000       0.00000005       0.00004858      -0.00000135      -0.00000001      -0.00000001      -0.00365799
Na       5.03011143       4.94934718       0.00000059      -0.00020829       0.00084795       0.02041445       0.00000001       0.00000002       0.00005673      -0.00000005       0.00000035      -0.00000001      -0.00519330
Cl       5.03254115       4.98118951       2.54626070      -0.00196696       0.00121166      -0.00031636       0.00000012       0.00000010       0.00007724       0.00000234      -0.00000215      -0.00000011      -0.00909591
Na       4.88791456       5.10387108       5.08806068       0.00380676      -0.00300913       0.01518634       0.00000020       0.00000013       0.00009120       0.00000038      -0.00000018      -0.00000016      -0.01175660
Cl       4.97985936       5.03668045       7.50287824      -0.00163152       0.00094952      -0.03528442       0.00000008       0.00000006       0.00007068      -0.00000201       0.00000232      -0.00000007      -0.00785400
