16
Lattice="10.4 0.0 0.0 0.0 10.4 0.0 0.0 0.0 10.4" Properties=species:S:1:pos:R:3:forces:R:3:stresses:R:6:energies:R:1 energy=-0.13891373724459746 stress="1.4770880367696474e-06 -4.7086232312431334e-07 2.6083177013455287e-06 -4.7086232312431334e-07 3.272324013670365e-06 1.2627916081781897e-05 2.6083177013455287e-06 1.2627916081781897e-05 0.001169673616677765" free_energy=-0.13891373724459746 pbc="T T T"
Na      -0.03334063      -0.00450135      -0.17089569       0.00127833      -0.00087259      -0.00568013       0.00000014       0.00000011       0.00007193      -0.00000251       0.00000269      -0.00000012      -0.00809971
Cl       0.13122166      -0.14347485       2.43266021      -0.00329906       0.00224579       0.01204021       0.00000019       0.00000011       0.00007799      -0.00000098       0.00000045      -0.00000014      -0.00925416
Na       0.04023051      -0.09962305       4.91536382       0.00072052       0.00026127      -0.02179813       0.00000010       0.00000008       0.00006808       0.00000200      -0.00000259      -0.00000008      -0.00736185
Cl      -0.07272061       0.04411632       7.68337664       0.00130021      -0.00163446       0.01543805       0.00000005       0.00000008       0.00006202       0.00000046      -0.00000035      -0.00000006      -0.00620740
Na       0.00332315       4.91056596       0.04312467      -0.00067375       0.00116091       0.03368851       0.00000002       0.00000005       0.00003820       0.00000132      -0.00000076      -0.00000003      -0.00445901
Cl      -0.04769278       4.99846956       2.59400010       0.00034905      -0.00110065       0.02879926       0.00000002       0.00000005       0.00010308       0.00000138      -0.00000110      -0.00000003      -0.01395845
Na      -0.05982968       5.00072202       4.92975137       0.00108263       0.00025698      -0.02258203       0.00000002       0.00000000       0.00010907       0.00000041       0.00000050       0.00000001      -0.01508241
Cl      -0.01251473       5.02052564       7.42089768      -0.00075794      -0.00031723      -0.03990574       0.00000002       0.00000000       0.00004419       0.00000035       0.00000084       0.00000001      -0.00558297
Na       4.97289424      -0.01889472      -0.05101240      -0.00065863      -0.00093382       0.01420300       0.00000003       0.00000006       0.00006425      -0.00000191      -0.00000138       0.00000005      -0.00662214
Cl       4.90499102      -0.11369738       2.48772038       0.00288734       0.00908285       0.02699038       0.00000009       0.00000107       0.00010282       0.00000656       0.00000097       0.00000029      -0.01411719
Na       4.97847544       0.17850934       4.80521859      -0.00176875      -0.00870656      -0.04439051       0.00000007       0.00000107       0.00008523       0.00000687       0.00000225       0.00000024      -0.01079614
Cl       5.00901812       0.02963556       7.60877071      -0.00045996       0.00055753       0.00319713       0.00000001       0.00000007       0.00004666      -0.00000159      -0.00000009      -0.00000001      -0.00330108
Na       5.04014858       4.93246290       0.00000078      -0.00027943       0.00110288       0.01900768       0.00000001       0.00000004       0.00005531      -0.00000010       0.00000046      -0.00000002      -0.00492891
Cl       5.04338821       4.97491934       2.56168094      -0.00246994       0.00151489      -0.00069916       0.00000021       0.00000016       0.00007400       0.00000296      -0.00000271      -0.00000018      -0.00851310
Na       4.85055275       5.13849477       5.11741424       0.00515111      -0.00404960       0.02081755       0.00000036       0.00000023       0.00009278       0.00000023       0.00000013      -0.00000028      -0.01210671
Cl       4.97314581       5.04890726       7.50383765      -0.00240174       0.00143182      -0.03912608       0.00000016       0.00000011       0.00007408      -0.00000283       0.00000330      -0.00000013      -0.00852252
