16
Lattice="10.4 0.0 0.0 0.0 10.4 0.0 0.0 0.0 10.4" Properties=species:S:1:pos:R:3:forces:R:3:stresses:R:6:energies:R:1 energy=-0.14446519308393813 stress="2.2823086975745452e-06 -5.778831226442486e-07 4.913864280948566e-06 -5.778831226442486e-07 5.4017463584265e-06 1.6793002225274456e-05 4.913864280948566e-06 1.6793002225274456e-05 0.0011958910099543255" free_energy=-0.14446519308393813 pbc="T T T"
Na      -0.04167578      -0.00562668      -0.21361961       0.00118255      -0.00065640      -0.01746689       0.00000021       0.00000016       0.00007861      -0.00000322       0.00000337      -0.00000018      -0.00938680
Cl       0.16402708      -0.17934356       2.41582526      -0.00394165       0.00264651       0.01466910       0.00000028       0.00000016       0.00007595      -0.00000103       0.00000033      -0.00000020      -0.00889493
Na       0.05028814      -0.12452881       4.89420478       0.00109339       0.00009630      -0.02517331       0.00000014       0.00000010       0.00006511       0.00000226      -0.00000307      -0.00000011      -0.00681813
Cl      -0.09090076       0.05514540       7.72922080       0.00166571      -0.00208641       0.02797110       0.00000007       0.00000011       0.00006778       0.00000008      -0.00000003      -0.00000009      -0.00731000
Na       0.00415394       4.88820746       0.05390583      -0.00080672       0.00139003       0.03243074       0.00000002       0.00000007       0.00003696       0.00000158      -0.00000092      -0.00000004      -0.00423003
Cl      -0.05961597       4.99808695       2.61750012       0.00033966      -0.00130335       0.03821339       0.00000003       0.00000007       0.00010901       0.00000167      -0.00000140      -0.00000004      -0.01509358
Na      -0.07478709       5.00090253       4.91218921       0.00142029       0.00031230      -0.03052932       0.00000003       0.00000000       0.00011644       0.00000053       0.00000058       0.00000001      -0.01648486
Cl      -0.01564342       5.02565705       7.40112210      -0.00095323      -0.00039898      -0.04011481       0.00000003       0.00000000       0.00004438       0.00000044       0.00000105       0.00000001      -0.00562130
Na       4.96611780      -0.02361840      -0.06376550      -0.00074184      -0.00105576       0.01095119       0.00000005       0.00000010       0.00006545      -0.00000239      -0.00000173       0.00000007      -0.00685853
Cl       4.88123877      -0.14212172       2.48465048       0.00387176       0.01250055       0.03431885       0.00000015       0.00000186       0.00010684       0.00000927       0.00000151       0.00000051      -0.01504393
Na       4.97309430       0.22313668       4.75652324      -0.00255979      -0.01185957      -0.05368627       0.00000012       0.00000185       0.00008701       0.00000986       0.00000302       0.00000043      -0.01129739
Cl       5.01127265       0.03704445       7.63596339      -0.00057013       0.00041478       0.00841624       0.00000001       0.00000009       0.00004562      -0.00000180      -0.00000021      -0.00000001      -0.00311200
Na       5.05018572       4.91557863       0.00000098      -0.00035086       0.00134493       0.01767878       0.00000001       0.00000006       0.00005392      -0.00000015       0.00000057      -0.00000002      -0.00467198
Cl       5.05423526       4.96864918       2.57710117      -0.00289604       0.00176551      -0.00117417       0.00000031       0.00000023       0.00007077       0.00000350      -0.00000319      -0.00000026      -0.00793427
Na       4.81319093       5.17311847       5.14676780       0.00655324      -0.00512337       0.02669264       0.00000056       0.00000035       0.00009444      -0.00000008       0.00000063      -0.00000044      -0.01248488
Cl       4.96643227       5.06113408       7.50479706      -0.00330634       0.00201293      -0.04319726       0.00000027       0.00000018       0.00007760      -0.00000373       0.00000440      -0.00000021      -0.00922259
