16
Lattice="10.4 0.0 0.0 0.0 10.4 0.0 0.0 0.0 10.4" Properties=species:S:1:pos:R:3:forces:R:3:stresses:R:6:energies:R:1 energy=-0.15195511676541795 stress="3.271307571900892e-06 -6.219843101373526e-07 8.017873489349397e-06 -6.219843101373526e-07 8.250284444651854e-06 2.1078140567107613e-05 8.017873489349397e-06 2.1078140567107613e-05 0.0012313549454969338" free_energy=-0.15195511676541795 pbc="T T T"
Na      -0.05001094      -0.00675202      -0.25634353       0.00084180      -0.00016243      -0.03220009       0.00000028       0.00000023       0.00008790      -0.00000407       0.00000413      -0.00000025      -0.01117494
Cl       0.19683250      -0.21521227       2.39899032      -0.00452697       0.00299671       0.01713174       0.00000038       0.00000021       0.00007397      -0.00000103       0.00000015      -0.00000027      -0.00855191
Na       0.06034577      -0.14943457       4.87304573       0.00150154      -0.00010887      -0.02799413       0.00000020       0.00000013       0.00006261       0.00000248      -0.00000351      -0.00000014      -0.00636204
Cl      -0.10908091       0.06617449       7.77506496       0.00218363      -0.00272541       0.04306249       0.00000010       0.00000015       0.00007654      -0.00000055       0.00000048      -0.00000012      -0.00898507
Na       0.00498473       4.86584895       0.06468700      -0.00092682       0.00159698       0.03120318       0.00000003       0.00000009       0.00003573       0.00000183      -0.00000106      -0.00000005      -0.00400574
Cl      -0.07153916       4.99770434       2.64100015       0.00028034      -0.00147700       0.04882445       0.00000004       0.00000009       0.00011590       0.00000195      -0.00000171      -0.00000006      -0.01641289
Na      -0.08974451       5.00108303       4.89462705       0.00179714       0.00036163      -0.03971109       0.00000004       0.00000001       0.00012473       0.00000065       0.00000062       0.00000001      -0.01806565
Cl      -0.01877210       5.03078845       7.38134651      -0.00115066      -0.00048161      -0.04031654       0.00000004       0.00000001       0.00004456       0.00000053       0.00000127       0.00000002      -0.00565850
Na       4.95934136      -0.02834208      -0.07651860      -0.00078618      -0.00112466       0.00744181       0.00000007       0.00000014       0.00006689      -0.00000288      -0.00000208       0.00000010      -0.00714017
Cl       4.85748653      -0.17054607       2.48158058       0.00497528       0.01643156       0.04161531       0.00000024       0.00000296       0.00011057       0.00001240       0.00000216       0.00000080      -0.01598143
Na       4.96771316       0.26776401       4.70782789      -0.00349208      -0.01551444      -0.06237729       0.00000018       0.00000294       0.00008906       0.00001329       0.00000388       0.00000070      -0.01191281
Cl       5.01352718       0.04445334       7.66315606      -0.00069702       0.00020755       0.01332017       0.00000002       0.00000011       0.00004538      -0.00000199      -0.00000036      -0.00000000      -0.00307155
Na       5.06022286       4.89869436       0.00000117      -0.00042227       0.00157455       0.01642474       0.00000002       0.00000009       0.00005256      -0.00000022       0.00000068      -0.00000004      -0.00442213
Cl       5.06508231       4.96237902       2.59252141      -0.00324740       0.00196436      -0.00171624       0.00000041       0.00000032       0.00006755       0.00000396      -0.00000360      -0.00000035      -0.00736225
Na       4.77582912       5.20774216       5.17612136       0.00802833      -0.00624176       0.03278570       0.00000081       0.00000051       0.00009619      -0.00000055       0.00000135      -0.00000064      -0.01289409
Cl       4.95971872       5.07336089       7.50575647      -0.00435866       0.00270286      -0.04749421       0.00000042       0.00000028       0.00008120      -0.00000473       0.00000563      -0.00000033      -0.00995396
