16
Lattice="10.5 0.0 0.0 0.0 10.5 0.0 0.0 0.0 10.5" Properties=species:S:1:pos:R:3:forces:R:3:stresses:R:6:energies:R:1 energy=-0.128428730657428 stress="9.581733385906007e-08 -4.8945855430940966e-08 -2.893579062782786e-07 -4.8945855430940966e-08 1.763787391472902e-07 2.4930434364378043e-06 -2.893579062782786e-07 2.4930434364378043e-06 0.0010871691960375456" free_energy=-0.128428730657428 pbc="T T T"
Na      -0.00833516      -0.00112534      -0.04272392       0.00054462      -0.00044214       0.02274922       0.00000001       0.00000001       0.00005650      -0.00000061       0.00000070      -0.00000001      -0.00545968
Cl       0.03280542      -0.03586871       2.48316505      -0.00094987       0.00067178       0.00321706       0.00000001       0.00000001       0.00008207      -0.00000036       0.00000026      -0.00000001      -0.01042220
Na       0.01005763      -0.02490576       4.97884096       0.00000315       0.00028033      -0.00704896       0.00000001       0.00000001       0.00007846       0.00000069      -0.00000078      -0.00000001      -0.00972019
Cl      -0.01818015       0.01102908       7.54584416       0.00040209      -0.00050996      -0.01891732       0.00000000       0.00000001       0.00005289       0.00000043      -0.00000034      -0.00000001      -0.00475767
Na       0.00083079       4.97764149       0.01078117      -0.00019101       0.00032913       0.03763246       0.00000000       0.00000000       0.00004084       0.00000036      -0.00000021      -0.00000000      -0.00517262
Cl      -0.01192319       4.99961739       2.52350002       0.00013702      -0.00031911       0.00612262       0.00000000       0.00000000       0.00008731       0.00000037      -0.00000026      -0.00000000      -0.01143976
Na      -0.01495742       5.00018051       4.98243784       0.00023980       0.00006775      -0.00451887       0.00000000       0.00000000       0.00008880       0.00000009       0.00000014       0.00000000      -0.01172851
Cl      -0.00312868       5.00513141       7.48022442      -0.00018581      -0.00007777      -0.03923620       0.00000000       0.00000000       0.00004233       0.00000008       0.00000020       0.00000000      -0.00546137
Na       4.99322356      -0.00472368      -0.01275310      -0.00022000      -0.00030909       0.02592869       0.00000000       0.00000000       0.00005649      -0.00000045      -0.00000033       0.00000000      -0.00545809
Cl       4.97624775      -0.02842434       2.49693010       0.00058719       0.00167265       0.00621289       0.00000000       0.00000005       0.00008794       0.00000100       0.00000007       0.00000001      -0.01157130
Na       4.99461886       0.04462734       4.95130465      -0.00023671      -0.00177161      -0.01250880       0.00000000       0.00000005       0.00008202       0.00000088       0.00000045       0.00000001      -0.01042099
Cl       5.00225453       0.00740889       7.52719268      -0.00013048       0.00040804      -0.01963279       0.00000000       0.00000001       0.00005058      -0.00000057       0.00000006      -0.00000000      -0.00430778
Na       5.01003714       4.98311573       0.00000020      -0.00004920       0.00026408       0.02640213       0.00000000       0.00000000       0.00005480       0.00000003       0.00000009      -0.00000000      -0.00512818
Cl       5.01084705       4.99372984       2.51542023      -0.00072976       0.00045116       0.00006237       0.00000001       0.00000001       0.00008123       0.00000083      -0.00000077      -0.00000001      -0.01026128
Na       4.96263819       5.03462369       5.02935356       0.00124079      -0.00099106       0.00475427       0.00000002       0.00000001       0.00008567       0.00000025      -0.00000022      -0.00000002      -0.01112610
Cl       4.99328645       5.01222682       7.50095941      -0.00046183       0.00027582      -0.03121877       0.00000001       0.00000001       0.00005923      -0.00000055       0.00000064      -0.00000001      -0.00599300
