16
Lattice="10.600000000000001 0.0 0.0 0.0 10.600000000000001 0.0 0.0 0.0 10.600000000000001" Properties=species:S:1:pos:R:3:forces:R:3:stresses:R:6:energies:R:1 energy=-0.12671303911205653 stress="7.833254455555413e-07 -2.879297796634158e-07 2.696046198179995e-07 -2.879297796634158e-07 1.61760657569852e-06 9.856352691757334e-06 2.696046198179995e-07 9.856352691757334e-06 0.0010182310063277" free_energy=-0.12671303911205653 pbc="T T T"
Na      -0.02500547      -0.00337601      -0.12817177       0.00131671      -0.00104590       0.01478354       0.00000008       0.00000006       0.00005293      -0.00000161       0.00000181      -0.00000007      -0.00508371
Cl       0.09841625      -0.10760614       2.44949516      -0.00259153       0.00178776       0.00924970       0.00000011       0.00000006       0.00007565      -0.00000080       0.00000045      -0.00000008      -0.00962908
Na       0.03017289      -0.07471729       4.93652287       0.00039871       0.00036662      -0.01775284       0.00000006       0.00000005       0.00006761       0.00000158      -0.00000196      -0.00000005      -0.00801141
Cl      -0.05454046       0.03308724       7.63753248       0.00087611      -0.00110848      -0.00628039       0.00000003       0.00000004       0.00004489       0.00000077      -0.00000060      -0.00000003      -0.00346604
Na       0.00249236       4.93292447       0.03234350      -0.00052725       0.00090848       0.03497553       0.00000001       0.00000003       0.00003727       0.00000097      -0.00000056      -0.00000001      -0.00469256
Cl      -0.03576958       4.99885217       2.57050007       0.00031514      -0.00086911       0.02040726       0.00000001       0.00000003       0.00009253       0.00000101      -0.00000077      -0.00000001      -0.01298407
Na      -0.04487226       5.00054152       4.94731353       0.00077698       0.00019706      -0.01569328       0.00000001       0.00000000       0.00009681       0.00000029       0.00000038       0.00000000      -0.01383504
Cl      -0.00938605       5.01539423       7.44067326      -0.00056487      -0.00023643      -0.03968951       0.00000001       0.00000000       0.00004154       0.00000025       0.00000059       0.00000000      -0.00554352
Na       4.97967068      -0.01417104      -0.03825930      -0.00061717      -0.00086715       0.02436681       0.00000002       0.00000003       0.00005236      -0.00000124      -0.00000090       0.00000002      -0.00495643
Cl       4.92874326      -0.08527303       2.49079029       0.00201811       0.00616378       0.01978577       0.00000005       0.00000050       0.00009319       0.00000405       0.00000052       0.00000014      -0.01322024
Na       4.98385658       0.13388201       4.85391395      -0.00111952      -0.00602099      -0.03449218       0.00000003       0.00000051       0.00007934       0.00000413       0.00000149       0.00000011      -0.01045226
Cl       5.00676359       0.02222667       7.58157803      -0.00028142       0.00072436      -0.00966040       0.00000000       0.00000004       0.00003850      -0.00000116       0.00000007      -0.00000001      -0.00218845
Na       5.03011143       4.94934718       0.00000059       0.00003274       0.00042907       0.03431004       0.00000000       0.00000001       0.00003668       0.00000046       0.00000003       0.00000000      -0.00456852
Cl       5.03254115       4.98118951       2.54626070      -0.00196696       0.00121166      -0.00031636       0.00000012       0.00000009       0.00007295       0.00000221      -0.00000203      -0.00000010      -0.00909591
Na       4.88791456       5.10387108       5.08806068       0.00380676      -0.00300913       0.01518634       0.00000019       0.00000012       0.00008613       0.00000036      -0.00000017      -0.00000015      -0.01175660
Cl       4.97985936       5.03668045       7.50287824      -0.00187254       0.00136840      -0.04918002       0.00000007       0.00000004       0.00004986      -0.00000139       0.00000190      -0.00000005      -0.00722921
