16
Lattice="10.600000000000001 0.0 0.0 0.0 10.600000000000001 0.0 0.0 0.0 10.600000000000001" Properties=species:S:1:pos:R:3:forces:R:3:stresses:R:6:energies:R:1 energy=-0.1381996384187503 stress="3.00587981921414e-06 -4.901148046392587e-07 5.660579205664627e-06 -4.901148046392587e-07 7.601085757668039e-06 2.4024621112119005e-05 5.660579205664627e-06 2.4024621112119005e-05 0.0010668840034135751" free_energy=-0.1381996384187503 pbc="T T T"
Na      -0.05001094      -0.00675202      -0.25634353       0.00150882      -0.00098591      -0.00795630       0.00000025       0.00000019       0.00006161      -0.00000310       0.00000330      -0.00000022      -0.00687748
Cl       0.19683250      -0.21521227       2.39899032      -0.00452697       0.00299671       0.01713174       0.00000036       0.00000020       0.00006986      -0.00000098       0.00000014      -0.00000026      -0.00855191
Na       0.06034577      -0.14943457       4.87304573       0.00150154      -0.00010887      -0.02799413       0.00000019       0.00000012       0.00005913       0.00000235      -0.00000331      -0.00000013      -0.00636204
Cl      -0.10908091       0.06617449       7.77506496       0.00151661      -0.00190192       0.01881870       0.00000007       0.00000012       0.00005088       0.00000022      -0.00000015      -0.00000009      -0.00468761
Na       0.00498473       4.86584895       0.06468700      -0.00092682       0.00159698       0.03120318       0.00000003       0.00000009       0.00003375       0.00000173      -0.00000100      -0.00000005      -0.00400574
Cl      -0.07153916       4.99770434       2.64100015       0.00028034      -0.00147700       0.04882445       0.00000003       0.00000009       0.00010946       0.00000184      -0.00000161      -0.00000005      -0.01641289
Na      -0.08974451       5.00108303       4.89462705       0.00179714       0.00036163      -0.03971109       0.00000004       0.00000001       0.00011780       0.00000062       0.00000059       0.00000001      -0.01806565
Cl      -0.01877210       5.03078845       7.38134651      -0.00115066      -0.00048161      -0.04031654       0.00000003       0.00000001       0.00004209       0.00000050       0.00000120       0.00000001      -0.00565850
Na       4.95934136      -0.02834208      -0.07651860      -0.00101119      -0.00142694       0.01742566       0.00000006       0.00000012       0.00005330      -0.00000241      -0.00000174       0.00000009      -0.00516820
Cl       4.85748653      -0.17054607       2.48158058       0.00497528       0.01643156       0.04161531       0.00000023       0.00000280       0.00010443       0.00001171       0.00000204       0.00000075      -0.01598143
Na       4.96771316       0.26776401       4.70782789      -0.00349208      -0.01551444      -0.06237729       0.00000017       0.00000277       0.00008411       0.00001255       0.00000366       0.00000066      -0.01191281
Cl       5.01352718       0.04445334       7.66315606      -0.00047201       0.00050983       0.00333632       0.00000001       0.00000010       0.00003298      -0.00000158      -0.00000012      -0.00000001      -0.00109958
Na       5.06022286       4.89869436       0.00000117       0.00005664       0.00074225       0.03021601       0.00000000       0.00000002       0.00003289       0.00000081       0.00000006       0.00000000      -0.00381383
Cl       5.06508231       4.96237902       2.59252141      -0.00324740       0.00196436      -0.00171624       0.00000039       0.00000030       0.00006380       0.00000374      -0.00000340      -0.00000033      -0.00736225
Na       4.77582912       5.20774216       5.17612136       0.00802833      -0.00624176       0.03278570       0.00000076       0.00000048       0.00009085      -0.00000052       0.00000127      -0.00000060      -0.01289409
Cl       4.95971872       5.07336089       7.50575647      -0.00483757       0.00353515      -0.06128548       0.00000037       0.00000020       0.00005994      -0.00000346       0.00000473      -0.00000027      -0.00934566
