16
Lattice="9.1 0.0 0.0 0.0 9.1 0.0 0.0 0.0 9.1" Properties=species:S:1:pos:R:3:forces:R:3:stresses:R:6:energies:R:1 energy=-1.6474669741710515 stress="1.0823234811282437e-05 -8.895357753305945e-06 0.0001373181061422954 -8.895357753305945e-06 2.719189342526645e-05 -0.0004138923424793572 0.0001373181061422954 -0.0004138923424793572 0.010971495326915664" free_energy=-1.6474669741710515 pbc="T T T"
Na      -0.03334063      -0.00450135      -0.17089569      -0.07383407       0.09185955      -2.36423520       0.00000217       0.00000315       0.00202725      -0.00007983       0.00006565      -0.00000261      -0.39087722
Cl       0.13122166      -0.14347485       2.43266021      -0.00329906       0.00224579       0.01204021       0.00000029       0.00000016       0.00011642      -0.00000146       0.00000067      -0.00000021      -0.00925416
Na       0.04023051      -0.09962305       4.91536382       0.00072052       0.00026127      -0.02179813       0.00000015       0.00000011       0.00010162       0.00000298      -0.00000387      -0.00000012      -0.00736185
Cl      -0.07272061       0.04411632       7.68337664       0.07641261      -0.09436660       2.37399313       0.00000203       0.00000311       0.00201245      -0.00007539       0.00006111      -0.00000251      -0.38898491
Na       0.00332315       4.91056596       0.04312467      -0.00513839       0.03215811      -0.45180056       0.00000007       0.00000233       0.00061179      -0.00003346       0.00000396      -0.00000037      -0.07455109
Cl      -0.04769278       4.99846956       2.59400010       0.00034905      -0.00110065       0.02879926       0.00000003       0.00000007       0.00015386       0.00000206      -0.00000164      -0.00000004      -0.01395845
Na      -0.05982968       5.00072202       4.92975137       0.00108263       0.00025698      -0.02258203       0.00000003       0.00000000       0.00016280       0.00000062       0.00000075       0.00000001      -0.01508241
Cl      -0.01251473       5.02052564       7.42089768       0.00370670      -0.03131444       0.44558334       0.00000007       0.00000227       0.00062073      -0.00003490       0.00000635      -0.00000032      -0.07567505
Na       4.97289424      -0.01889472      -0.05101240       0.03520984       0.04725334      -1.40608177       0.00000091       0.00000164       0.00143539      -0.00004858      -0.00003610       0.00000122      -0.19999599
Cl       4.90499102      -0.11369738       2.48772038       0.00288734       0.00908285       0.02699038       0.00000014       0.00000159       0.00015348       0.00000978       0.00000144       0.00000044      -0.01411719
Na       4.97847544       0.17850934       4.80521859      -0.00176875      -0.00870656      -0.04439051       0.00000010       0.00000160       0.00012722       0.00001026       0.00000336       0.00000036      -0.01079614
Cl       5.00901812       0.02963556       7.60877071      -0.03632843      -0.04762963       1.42348190       0.00000087       0.00000165       0.00140913      -0.00004811      -0.00003418       0.00000115      -0.19667494
Na       5.04014858       4.93246290       0.00000078      -0.03266927       0.05739332      -0.74636609       0.00000145       0.00000441       0.00088117      -0.00005928       0.00003471      -0.00000253      -0.11296208
Cl       5.04338821       4.97491934       2.56168094      -0.00246994       0.00151489      -0.00069916       0.00000031       0.00000024       0.00011047       0.00000442      -0.00000405      -0.00000026      -0.00851310
Na       4.85055275       5.13849477       5.11741424       0.00515111      -0.00404960       0.02081755       0.00000053       0.00000034       0.00013850       0.00000034       0.00000019      -0.00000043      -0.01210671
Cl       4.97314581       5.04890726       7.50383765       0.02998810      -0.05485861       0.72624769       0.00000168       0.00000451       0.00090920      -0.00006336       0.00003895      -0.00000269      -0.11655569
