16
Lattice="10.700000000000001 0.0 0.0 0.0 10.700000000000001 0.0 0.0 0.0 10.700000000000001" Properties=species:S:1:pos:R:3:forces:R:3:stresses:R:6:energies:R:1 energy=-0.12688551116431068 stress="8.907011637466047e-08 -4.470768092545934e-08 -4.431548530811351e-07 -4.470768092545934e-08 1.6309680338913866e-07 2.869199013032952e-06 -4.431548530811351e-07 2.869199013032952e-06 0.0009394071747873596" free_energy=-0.12688551116431068 pbc="T T T"
Na      -0.00833516      -0.00112534      -0.04272392       0.00059024      -0.00049846       0.03623842       0.00000001       0.00000001       0.00003736      -0.00000051       0.00000061      -0.00000001      -0.00492117
Cl       0.03280542      -0.03586871       2.48316505      -0.00094987       0.00067178       0.00321706       0.00000001       0.00000001       0.00007755      -0.00000034       0.00000024      -0.00000001      -0.01042220
Na       0.01005763      -0.02490576       4.97884096       0.00000315       0.00028033      -0.00704896       0.00000001       0.00000001       0.00007414       0.00000065      -0.00000074      -0.00000001      -0.00972019
Cl      -0.01818015       0.01102908       7.54584416       0.00035648      -0.00045365      -0.03240652       0.00000000       0.00000001       0.00003395       0.00000048      -0.00000037      -0.00000001      -0.00421916
Na       0.00083079       4.97764149       0.01078117      -0.00019101       0.00032913       0.03763246       0.00000000       0.00000000       0.00003859       0.00000034      -0.00000020      -0.00000000      -0.00517262
Cl      -0.01192319       4.99961739       2.52350002       0.00013702      -0.00031911       0.00612262       0.00000000       0.00000000       0.00008251       0.00000035      -0.00000025      -0.00000000      -0.01143976
Na      -0.01495742       5.00018051       4.98243784       0.00023980       0.00006775      -0.00451887       0.00000000       0.00000000       0.00008391       0.00000009       0.00000014       0.00000000      -0.01172851
Cl      -0.00312868       5.00513141       7.48022442      -0.00018581      -0.00007777      -0.03923620       0.00000000       0.00000000       0.00004000       0.00000008       0.00000019       0.00000000      -0.00546137
Na       4.99322356      -0.00472368      -0.01275310      -0.00025667      -0.00035834       0.03794511       0.00000000       0.00000000       0.00003887      -0.00000037      -0.00000026       0.00000000      -0.00522921
Cl       4.97624775      -0.02842434       2.49693010       0.00058719       0.00167265       0.00621289       0.00000000       0.00000004       0.00008310       0.00000095       0.00000007       0.00000001      -0.01157130
Na       4.99461886       0.04462734       4.95130465      -0.00023671      -0.00177161      -0.01250880       0.00000000       0.00000005       0.00007751       0.00000084       0.00000043       0.00000001      -0.01042099
Cl       5.00225453       0.00740889       7.52719268      -0.00009382       0.00045729      -0.03164921       0.00000000       0.00000001       0.00003327      -0.00000048       0.00000010      -0.00000000      -0.00407890
Na       5.01003714       4.98311573       0.00000020       0.00001203       0.00015767       0.03736493       0.00000000       0.00000000       0.00003836       0.00000016       0.00000001       0.00000000      -0.00512396
Cl       5.01084705       4.99372984       2.51542023      -0.00072976       0.00045116       0.00006237       0.00000001       0.00000001       0.00007676       0.00000079      -0.00000072      -0.00000001      -0.01026128
Na       4.96263819       5.03462369       5.02935356       0.00124079      -0.00099106       0.00475427       0.00000002       0.00000001       0.00008095       0.00000024      -0.00000021      -0.00000002      -0.01112610
Cl       4.99328645       5.01222682       7.50095941      -0.00052306       0.00038224      -0.04218158       0.00000001       0.00000000       0.00004255      -0.00000039       0.00000053      -0.00000000      -0.00598878
