16
Lattice="10.700000000000001 0.0 0.0 0.0 10.700000000000001 0.0 0.0 0.0 10.700000000000001" Properties=species:S:1:pos:R:3:forces:R:3:stresses:R:6:energies:R:1 energy=-0.12662856527728986 stress="1.3207201459566507e-06 -4.0019125475478495e-07 1.6471011811961305e-06 -4.0019125475478495e-07 2.9219896469355878e-06 1.4462834825381546e-05 1.6471011811961305e-06 1.4462834825381546e-05 0.0009606551147912328" free_energy=-0.12662856527728986 pbc="T T T"
Na      -0.03334063      -0.00450135      -0.17089569       0.00159040      -0.00125787       0.01282888       0.00000013       0.00000009       0.00004875      -0.00000194       0.00000218      -0.00000011      -0.00454547
Cl       0.13122166      -0.14347485       2.43266021      -0.00329906       0.00224579       0.01204021       0.00000018       0.00000010       0.00007161      -0.00000090       0.00000041      -0.00000013      -0.00925416
Na       0.04023051      -0.09962305       4.91536382       0.00072052       0.00026127      -0.02179813       0.00000009       0.00000007       0.00006251       0.00000183      -0.00000238      -0.00000007      -0.00736185
Cl      -0.07272061       0.04411632       7.68337664       0.00098814      -0.00124919      -0.00307096       0.00000004       0.00000006       0.00003965       0.00000079      -0.00000062      -0.00000005      -0.00265316
Na       0.00332315       4.91056596       0.04312467      -0.00067375       0.00116091       0.03368851       0.00000001       0.00000004       0.00003507       0.00000121      -0.00000070      -0.00000002      -0.00445901
Cl      -0.04769278       4.99846956       2.59400010       0.00034905      -0.00110065       0.02879926       0.00000002       0.00000004       0.00009465       0.00000127      -0.00000101      -0.00000002      -0.01395845
Na      -0.05982968       5.00072202       4.92975137       0.00108263       0.00025698      -0.02258203       0.00000002       0.00000000       0.00010015       0.00000038       0.00000046       0.00000001      -0.01508241
Cl      -0.01251473       5.02052564       7.42089768      -0.00075794      -0.00031723      -0.03990574       0.00000001       0.00000000       0.00004057       0.00000032       0.00000077       0.00000001      -0.00558297
Na       4.97289424      -0.01889472      -0.05101240      -0.00092954      -0.00129777       0.03475323       0.00000003       0.00000005       0.00003601      -0.00000134      -0.00000096       0.00000004      -0.00465577
Cl       4.90499102      -0.11369738       2.48772038       0.00288734       0.00908285       0.02699038       0.00000008       0.00000098       0.00009441       0.00000602       0.00000089       0.00000027      -0.01411719
Na       4.97847544       0.17850934       4.80521859      -0.00176875      -0.00870656      -0.04439051       0.00000006       0.00000098       0.00007826       0.00000631       0.00000207       0.00000022      -0.01079614
Cl       5.00901812       0.02963556       7.60877071      -0.00018905       0.00092148      -0.01735309       0.00000000       0.00000006       0.00001986      -0.00000105       0.00000022      -0.00000001      -0.00133472
Na       5.04014858       4.93246290       0.00000078       0.00004159       0.00054500       0.03288326       0.00000000       0.00000001       0.00003438       0.00000057       0.00000004       0.00000000      -0.00430692
Cl       5.04338821       4.97491934       2.56168094      -0.00246994       0.00151489      -0.00069916       0.00000019       0.00000015       0.00006795       0.00000272      -0.00000249      -0.00000016      -0.00851310
Na       4.85055275       5.13849477       5.11741424       0.00515111      -0.00404960       0.02081755       0.00000033       0.00000021       0.00008520       0.00000021       0.00000012      -0.00000026      -0.01210671
Cl       4.97314581       5.04890726       7.50383765      -0.00272275       0.00198971      -0.05300166       0.00000014       0.00000007       0.00005162      -0.00000194       0.00000265      -0.00000010      -0.00790053
