16
Lattice="10.700000000000001 0.0 0.0 0.0 10.700000000000001 0.0 0.0 0.0 10.700000000000001" Properties=species:S:1:pos:R:3:forces:R:3:stresses:R:6:energies:R:1 energy=-0.13402841337709429 stress="2.9100005014973592e-06 -4.6907880138822295e-07 5.2852642914535575e-06 -4.6907880138822295e-07 7.370219069153607e-06 2.3995945038949497e-05 5.2852642914535575e-06 2.3995945038949497e-05 0.0010169608756440418" free_energy=-0.13402841337709429 pbc="T T T"
Na      -0.05001094      -0.00675202      -0.25634353       0.00170240      -0.00122491      -0.00046188       0.00000024       0.00000018       0.00005305      -0.00000279       0.00000303      -0.00000021      -0.00546742
Cl       0.19683250      -0.21521227       2.39899032      -0.00452697       0.00299671       0.01713174       0.00000035       0.00000019       0.00006792      -0.00000095       0.00000013      -0.00000025      -0.00855191
Na       0.06034577      -0.14943457       4.87304573       0.00150154      -0.00010887      -0.02799413       0.00000018       0.00000012       0.00005749       0.00000228      -0.00000322      -0.00000013      -0.00636204
Cl      -0.10908091       0.06617449       7.77506496       0.00132303      -0.00166293       0.01132428       0.00000007       0.00000011       0.00004262       0.00000044      -0.00000033      -0.00000008      -0.00327755
Na       0.00498473       4.86584895       0.06468700      -0.00092682       0.00159698       0.03120318       0.00000003       0.00000009       0.00003281       0.00000168      -0.00000097      -0.00000005      -0.00400574
Cl      -0.07153916       4.99770434       2.64100015       0.00028034      -0.00147700       0.04882445       0.00000003       0.00000009       0.00010642       0.00000179      -0.00000157      -0.00000005      -0.01641289
Na      -0.08974451       5.00108303       4.89462705       0.00179714       0.00036163      -0.03971109       0.00000004       0.00000001       0.00011453       0.00000060       0.00000057       0.00000001      -0.01806565
Cl      -0.01877210       5.03078845       7.38134651      -0.00115066      -0.00048161      -0.04031654       0.00000003       0.00000001       0.00004092       0.00000049       0.00000117       0.00000001      -0.00565850
Na       4.95934136      -0.02834208      -0.07651860      -0.00108021      -0.00151967       0.02066508       0.00000006       0.00000011       0.00004853      -0.00000225      -0.00000162       0.00000008      -0.00449264
Cl       4.85748653      -0.17054607       2.48158058       0.00497528       0.01643156       0.04161531       0.00000022       0.00000272       0.00010153       0.00001139       0.00000198       0.00000073      -0.01598143
Na       4.96771316       0.26776401       4.70782789      -0.00349208      -0.01551444      -0.06237729       0.00000017       0.00000270       0.00008178       0.00001220       0.00000356       0.00000064      -0.01191281
Cl       5.01352718       0.04445334       7.66315606      -0.00040299       0.00060256       0.00009690       0.00000001       0.00000009       0.00002877      -0.00000144      -0.00000004      -0.00000001      -0.00042402
Na       5.06022286       4.89869436       0.00000117       0.00005664       0.00074225       0.03021601       0.00000000       0.00000002       0.00003197       0.00000079       0.00000006       0.00000000      -0.00381383
Cl       5.06508231       4.96237902       2.59252141      -0.00324740       0.00196436      -0.00171624       0.00000038       0.00000029       0.00006203       0.00000364      -0.00000330      -0.00000032      -0.00736225
Na       4.77582912       5.20774216       5.17612136       0.00802833      -0.00624176       0.03278570       0.00000074       0.00000046       0.00008833      -0.00000051       0.00000124      -0.00000058      -0.01289409
Cl       4.95971872       5.07336089       7.50575647      -0.00483757       0.00353515      -0.06128548       0.00000036       0.00000019       0.00005827      -0.00000336       0.00000460      -0.00000027      -0.00934566
