16
Lattice="9.1 0.0 0.0 0.0 9.1 0.0 0.0 0.0 9.1" Properties=species:S:1:pos:R:3:forces:R:3:stresses:R:6:energies:R:1 energy=-1.8808882314011903 stress="1.5311560165201215e-05 -1.0337533859571346e-05 0.00010081063511899915 -1.0337533859571346e-05 3.9712135386664765e-05 -0.0004494273783967124 0.00010081063511899915 -0.0004494273783967124 0.009538274804736535" free_energy=-1.8808882314011903 pbc="T T T"
Na      -0.04167578      -0.00562668      -0.21361961      -0.06226734       0.07767746      -1.48584697       0.00000238       0.00000340       0.00120697      -0.00006401       0.00005298      -0.00000283      -0.48447931
Cl       0.16402708      -0.17934356       2.41582526      -0.00394165       0.00264651       0.01466910       0.00000042       0.00000023       0.00011336      -0.00000154       0.00000050      -0.00000031      -0.00889493
Na       0.05028814      -0.12452881       4.89420478       0.00109339       0.00009630      -0.02517331       0.00000022       0.00000015       0.00009720       0.00000338      -0.00000458      -0.00000016      -0.00681813
Cl      -0.09090076       0.05514540       7.72922080       0.06511560      -0.08042026       1.49635118       0.00000217       0.00000332       0.00119080      -0.00005909       0.00004791      -0.00000269      -0.48240251
Na       0.00415394       4.88820746       0.05390583      -0.00565607       0.03505820      -0.39691227       0.00000010       0.00000317       0.00055448      -0.00003679       0.00000427      -0.00000050      -0.06688685
Cl      -0.05961597       4.99808695       2.61750012       0.00033966      -0.00130335       0.03821339       0.00000004       0.00000010       0.00016272       0.00000250      -0.00000208      -0.00000006      -0.01509358
Na      -0.07478709       5.00090253       4.91218921       0.00142029       0.00031230      -0.03052932       0.00000004       0.00000001       0.00017381       0.00000079       0.00000086       0.00000001      -0.01648486
Cl      -0.01564342       5.02565705       7.40112210       0.00389611      -0.03406715       0.38922821       0.00000010       0.00000308       0.00056557      -0.00003850       0.00000721      -0.00000043      -0.06827813
Na       4.96611780      -0.02361840      -0.06376550       0.05228812       0.07018684      -1.62258358       0.00000166       0.00000301       0.00159579      -0.00006931      -0.00005152       0.00000224      -0.23014323
Cl       4.88123877      -0.14212172       2.48465048       0.00387176       0.01250055       0.03431885       0.00000023       0.00000277       0.00015948       0.00001383       0.00000225       0.00000075      -0.01504393
Na       4.97309430       0.22313668       4.75652324      -0.00255979      -0.01185957      -0.05368627       0.00000017       0.00000276       0.00012988       0.00001471       0.00000451       0.00000064      -0.01129739
Cl       5.01127265       0.03704445       7.63596339      -0.05360009      -0.07082783       1.64195100       0.00000161       0.00000300       0.00156619      -0.00006843      -0.00004926       0.00000213      -0.22639670
Na       5.05018572       4.91557863       0.00000098      -0.04043491       0.07100715      -0.73956428       0.00000225       0.00000682       0.00087003      -0.00007336       0.00004293      -0.00000391      -0.11184946
Cl       5.05423526       4.96864918       2.57710117      -0.00289604       0.00176551      -0.00117417       0.00000046       0.00000035       0.00010563       0.00000523      -0.00000477      -0.00000038      -0.00793427
Na       4.81319093       5.17311847       5.14676780       0.00655324      -0.00512337       0.02669264       0.00000083       0.00000053       0.00014098      -0.00000012       0.00000095      -0.00000066      -0.01248488
Cl       4.96643227       5.06113408       7.50479706       0.03677771      -0.06764929       0.71404581       0.00000263       0.00000700       0.00090538      -0.00007871       0.00004865      -0.00000419      -0.11640007
