16
Lattice="11.0 0.0 0.0 0.0 11.0 0.0 0.0 0.0 11.0" Properties=species:S:1:pos:R:3:forces:R:3:stresses:R:6:energies:R:1 energy=-0.12427949825081272 stress="6.950639519556154e-07 -2.5585477357203455e-07 1.1370029661357106e-07 -2.5585477357203455e-07 1.4379263450494673e-06 9.578178127168217e-06 1.1370029661357106e-07 9.578178127168217e-06 0.0008508891089639372" free_energy=-0.12427949825081272 pbc="T T T"
Na      -0.02500547      -0.00337601      -0.12817177       0.00148608      -0.00125500       0.03103685       0.00000007       0.00000005       0.00003005      -0.00000122       0.00000144      -0.00000006      -0.00397606
Cl       0.09841625      -0.10760614       2.44949516      -0.00259153       0.00178776       0.00924970       0.00000010       0.00000006       0.00006769      -0.00000072       0.00000041      -0.00000007      -0.00962908
Na       0.03017289      -0.07471729       4.93652287       0.00039871       0.00036662      -0.01775284       0.00000005       0.00000004       0.00006050       0.00000141      -0.00000175      -0.00000004      -0.00801141
Cl      -0.05454046       0.03308724       7.63753248       0.00070674      -0.00089938      -0.02253370       0.00000002       0.00000004       0.00002286       0.00000091      -0.00000072      -0.00000003      -0.00235839
Na       0.00249236       4.93292447       0.03234350      -0.00052725       0.00090848       0.03497553       0.00000001       0.00000002       0.00003335       0.00000087      -0.00000050      -0.00000001      -0.00469256
Cl      -0.03576958       4.99885217       2.57050007       0.00031514      -0.00086911       0.02040726       0.00000001       0.00000002       0.00008280       0.00000090      -0.00000069      -0.00000001      -0.01298407
Na      -0.04487226       5.00054152       4.94731353       0.00077698       0.00019706      -0.01569328       0.00000001       0.00000000       0.00008662       0.00000026       0.00000034       0.00000000      -0.01383504
Cl      -0.00938605       5.01539423       7.44067326      -0.00056487      -0.00023643      -0.03968951       0.00000001       0.00000000       0.00003718       0.00000022       0.00000053       0.00000000      -0.00554352
Na       4.97967068      -0.01417104      -0.03825930      -0.00072129      -0.00100702       0.03581899       0.00000001       0.00000003       0.00003403      -0.00000096      -0.00000069       0.00000002      -0.00484731
Cl       4.92874326      -0.08527303       2.49079029       0.00201811       0.00616378       0.01978577       0.00000004       0.00000045       0.00008339       0.00000362       0.00000047       0.00000013      -0.01322024
Na       4.98385658       0.13388201       4.85391395      -0.00111952      -0.00602099      -0.03449218       0.00000003       0.00000046       0.00007100       0.00000369       0.00000133       0.00000010      -0.01045226
Cl       5.00676359       0.02222667       7.58157803      -0.00017730       0.00086423      -0.02111258       0.00000000       0.00000004       0.00002163      -0.00000089       0.00000018      -0.00000001      -0.00207933
Na       5.03011143       4.94934718       0.00000059       0.00003274       0.00042907       0.03431004       0.00000000       0.00000001       0.00003282       0.00000041       0.00000003       0.00000000      -0.00456852
Cl       5.03254115       4.98118951       2.54626070      -0.00196696       0.00121166      -0.00031636       0.00000011       0.00000008       0.00006528       0.00000198      -0.00000182      -0.00000009      -0.00909591
Na       4.88791456       5.10387108       5.08806068       0.00380676      -0.00300913       0.01518634       0.00000017       0.00000011       0.00007707       0.00000033      -0.00000015      -0.00000014      -0.01175660
Cl       4.97985936       5.03668045       7.50287824      -0.00187254       0.00136840      -0.04918002       0.00000006       0.00000003       0.00004461      -0.00000124       0.00000170      -0.00000005      -0.00722921
