16
Lattice="9.200000000000001 0.0 0.0 0.0 9.200000000000001 0.0 0.0 0.0 9.200000000000001" Properties=species:S:1:pos:R:3:forces:R:3:stresses:R:6:energies:R:1 energy=-0.7435366623740378 stress="0.0 0.0 0.0 0.0 0.0 0.0 0.0 0.0 0.006186871062458305" free_energy=-0.7435366623740378 pbc="T T T"
Na       0.00000000       0.00000000       0.00000000       0.00000000       0.00000000      -0.49742081       0.00000000       0.00000000       0.00064815       0.00000000       0.00000000       0.00000000      -0.08210463
Cl       0.00000000       0.00000000       2.50000000       0.00000000       0.00000000       0.00000000       0.00000000       0.00000000       0.00012521       0.00000000       0.00000000       0.00000000      -0.01083745
Na       0.00000000       0.00000000       5.00000000       0.00000000       0.00000000       0.00000000       0.00000000       0.00000000       0.00012521       0.00000000       0.00000000       0.00000000      -0.01083745
Cl       0.00000000       0.00000000       7.50000000       0.00000000       0.00000000       0.49742081       0.00000000       0.00000000       0.00064815       0.00000000       0.00000000       0.00000000      -0.08210463
Na       0.00000000       5.00000000       0.00000000       0.00000000       0.00000000      -0.49742081       0.00000000       0.00000000       0.00064815       0.00000000       0.00000000       0.00000000      -0.08210463
Cl       0.00000000       5.00000000       2.50000000       0.00000000       0.00000000       0.00000000       0.00000000       0.00000000       0.00012521       0.00000000       0.00000000       0.00000000      -0.01083745
Na       0.00000000       5.00000000       5.00000000       0.00000000       0.00000000       0.00000000       0.00000000       0.00000000       0.00012521       0.00000000       0.00000000       0.00000000      -0.01083745
Cl       0.00000000       5.00000000       7.50000000       0.00000000       0.00000000       0.49742081       0.00000000       0.00000000       0.00064815       0.00000000       0.00000000       0.00000000      -0.08210463
Na       5.00000000       0.00000000       0.00000000       0.00000000       0.00000000      -0.49742081       0.00000000       0.00000000       0.00064815       0.00000000       0.00000000       0.00000000      -0.08210463
Cl       5.00000000       0.00000000       2.50000000       0.00000000       0.00000000       0.00000000       0.00000000       0.00000000       0.00012521       0.00000000       0.00000000       0.00000000      -0.01083745
Na       5.00000000       0.00000000       5.00000000       0.00000000       0.00000000       0.00000000       0.00000000       0.00000000       0.00012521       0.00000000       0.00000000       0.00000000      -0.01083745
Cl       5.00000000       0.00000000       7.50000000       0.00000000       0.00000000       0.49742081       0.00000000       0.00000000       0.00064815       0.00000000       0.00000000       0.00000000      -0.08210463
Na       5.00000000       5.00000000       0.00000000       0.00000000       0.00000000      -0.49742081       0.00000000       0.00000000       0.00064815       0.00000000       0.00000000       0.00000000      -0.08210463
Cl       5.00000000       5.00000000       2.50000000       0.00000000       0.00000000       0.00000000       0.00000000       0.00000000       0.00012521       0.00000000       0.00000000       0.00000000      -0.01083745
Na       5.00000000       5.00000000       5.00000000       0.00000000       0.00000000       0.00000000       0.00000000       0.00000000       0.00012521       0.00000000       0.00000000       0.00000000      -0.01083745
Cl       5.00000000       5.00000000       7.50000000       0.00000000       0.00000000       0.49742081       0.00000000       0.00000000       0.00064815       0.00000000       0.00000000       0.00000000      -0.08210463
