16
Lattice="9.200000000000001 0.0 0.0 0.0 9.200000000000001 0.0 0.0 0.0 9.200000000000001" Properties=species:S:1:pos:R:3:forces:R:3:stresses:R:6:energies:R:1 energy=-0.8047199624926601 stress="3.5727912717633155e-07 -3.2592205775695946e-07 1.5573485099984255e-05 -3.2592205775695946e-07 1.0284602753298232e-06 -5.3925849504551816e-05 1.5573485099984255e-05 -5.3925849504551816e-05 0.00660208118130539" free_energy=-0.8047199624926601 pbc="T T T"
Na      -0.00833516      -0.00112534      -0.04272392      -0.00401134       0.00518256      -0.71694972       0.00000004       0.00000006       0.00083811      -0.00000669       0.00000572      -0.00000005      -0.10985350
Cl       0.03280542      -0.03586871       2.48316505      -0.00094987       0.00067178       0.00321706       0.00000002       0.00000001       0.00012200      -0.00000053       0.00000038      -0.00000002      -0.01042220
Na       0.01005763      -0.02490576       4.97884096       0.00000315       0.00028033      -0.00704896       0.00000001       0.00000001       0.00011664       0.00000103      -0.00000116      -0.00000001      -0.00972019
Cl      -0.01818015       0.01102908       7.54584416       0.00495806      -0.00613466       0.72078162       0.00000004       0.00000005       0.00083275      -0.00000513       0.00000417      -0.00000004      -0.10915149
Na       0.00083079       4.97764149       0.01078117      -0.00128330       0.00791269      -0.43977123       0.00000000       0.00000014       0.00059121      -0.00000790       0.00000091      -0.00000002      -0.07406624
Cl      -0.01192319       4.99961739       2.52350002       0.00013702      -0.00031911       0.00612262       0.00000000       0.00000000       0.00012980       0.00000055      -0.00000039      -0.00000000      -0.01143976
Na      -0.01495742       5.00018051       4.98243784       0.00023980       0.00006775      -0.00451887       0.00000000       0.00000000       0.00013201       0.00000014       0.00000021       0.00000000      -0.01172851
Cl      -0.00312868       5.00513141       7.48022442       0.00090648      -0.00766133       0.43816749       0.00000000       0.00000013       0.00059342      -0.00000830       0.00000151      -0.00000002      -0.07435500
Na       4.99322356      -0.00472368      -0.01275310       0.00314125       0.00420655      -0.58665230       0.00000002       0.00000004       0.00072693      -0.00000544      -0.00000404       0.00000003      -0.09346613
Cl       4.97624775      -0.02842434       2.49693010       0.00058719       0.00167265       0.00621289       0.00000001       0.00000007       0.00013074       0.00000149       0.00000011       0.00000002      -0.01157130
Na       4.99461886       0.04462734       4.95130465      -0.00023671      -0.00177161      -0.01250880       0.00000000       0.00000007       0.00012194       0.00000131       0.00000068       0.00000001      -0.01042099
Cl       5.00225453       0.00740889       7.52719268      -0.00349173      -0.00410760       0.59294821       0.00000002       0.00000005       0.00071812      -0.00000562      -0.00000347       0.00000002      -0.09231582
Na       5.01003714       4.98311573       0.00000020      -0.00528807       0.00936873      -0.50023020       0.00000006       0.00000017       0.00064685      -0.00000979       0.00000580      -0.00000010      -0.08197831
Cl       5.01084705       4.99372984       2.51542023      -0.00072976       0.00045116       0.00006237       0.00000002       0.00000002       0.00012077       0.00000124      -0.00000114      -0.00000002      -0.01026128
Na       4.96263819       5.03462369       5.02935356       0.00124079      -0.00099106       0.00475427       0.00000003       0.00000002       0.00012736       0.00000038      -0.00000033      -0.00000003      -0.01112610
Cl       4.99328645       5.01222682       7.50095941       0.00477704      -0.00882883       0.49541356       0.00000007       0.00000018       0.00065344      -0.00001066       0.00000661      -0.00000011      -0.08284313
