16
Lattice="9.200000000000001 0.0 0.0 0.0 9.200000000000001 0.0 0.0 0.0 9.200000000000001" Properties=species:S:1:pos:R:3:forces:R:3:stresses:R:6:energies:R:1 energy=-1.023112282589176 stress="3.907226866924414e-06 -3.223116197536509e-06 6.695975485050896e-05 -3.223116197536509e-06 1.0055904324914321e-05 -0.00019234661356728672 6.695975485050896e-05 -0.00019234661356728672 0.007927492886173627" free_energy=-1.023112282589176 pbc="T T T"
Na      -0.02500547      -0.00337601      -0.12817177      -0.02889783       0.03625632      -1.44448499       0.00000069       0.00000096       0.00141028      -0.00003662       0.00003044      -0.00000081      -0.20400302
Cl       0.09841625      -0.10760614       2.44949516      -0.00259153       0.00178776       0.00924970       0.00000017       0.00000010       0.00011571      -0.00000123       0.00000069      -0.00000012      -0.00962908
Na       0.03017289      -0.07471729       4.93652287       0.00039871       0.00036662      -0.01775284       0.00000009       0.00000007       0.00010342       0.00000241      -0.00000299      -0.00000007      -0.00801141
Cl      -0.05454046       0.03308724       7.63753248       0.03109065      -0.03841070       1.45298813       0.00000061       0.00000094       0.00139799      -0.00003299       0.00002676      -0.00000076      -0.20238535
Na       0.00249236       4.93292447       0.03234350      -0.00302901       0.01827782      -0.34237652       0.00000003       0.00000096       0.00049112      -0.00001850       0.00000202      -0.00000015      -0.06021983
Cl      -0.03576958       4.99885217       2.57050007       0.00031514      -0.00086911       0.02040726       0.00000001       0.00000004       0.00014153       0.00000154      -0.00000118      -0.00000002      -0.01298407
Na      -0.04487226       5.00054152       4.94731353       0.00077698       0.00019706      -0.01569328       0.00000001       0.00000000       0.00014807       0.00000044       0.00000058       0.00000001      -0.01383504
Cl      -0.00938605       5.01539423       7.44067326       0.00193690      -0.01760577       0.33766254       0.00000003       0.00000092       0.00049766      -0.00001960       0.00000378      -0.00000013      -0.06107079
Na       4.97967068      -0.01417104      -0.03825930       0.01381517       0.01852185      -0.81200306       0.00000028       0.00000050       0.00091839      -0.00002145      -0.00001592       0.00000037      -0.12205326
Cl       4.92874326      -0.08527303       2.49079029       0.00201811       0.00616378       0.01978577       0.00000007       0.00000077       0.00014254       0.00000619       0.00000080       0.00000022      -0.01322024
Na       4.98385658       0.13388201       4.85391395      -0.00111952      -0.00602099      -0.03449218       0.00000005       0.00000079       0.00012135       0.00000631       0.00000228       0.00000017      -0.01045226
Cl       5.00676359       0.02222667       7.58157803      -0.01471376      -0.01866463       0.82670947       0.00000026       0.00000052       0.00089720      -0.00002133      -0.00001444       0.00000033      -0.11928528
Na       5.03011143       4.94934718       0.00000059      -0.01581616       0.02797293      -0.50094205       0.00000051       0.00000155       0.00063938      -0.00002931       0.00001732      -0.00000089      -0.08122472
Cl       5.03254115       4.98118951       2.54626070      -0.00196696       0.00121166      -0.00031636       0.00000018       0.00000014       0.00011158       0.00000338      -0.00000310      -0.00000015      -0.00909591
Na       4.88791456       5.10387108       5.08806068       0.00380676      -0.00300913       0.01518634       0.00000029       0.00000019       0.00013174       0.00000056      -0.00000025      -0.00000023      -0.01175660
Cl       4.97985936       5.03668045       7.50287824       0.01397636      -0.02617547       0.48607207       0.00000062       0.00000160       0.00065954      -0.00003214       0.00002017      -0.00000097      -0.08388542
