16
Lattice="9.200000000000001 0.0 0.0 0.0 9.200000000000001 0.0 0.0 0.0 9.200000000000001" Properties=species:S:1:pos:R:3:forces:R:3:stresses:R:6:energies:R:1 energy=-1.4244391411466133 stress="1.3942295160384215e-05 -1.0722448818098485e-05 0.0001521479389526023 -1.0722448818098485e-05 3.24852899949161e-05 -0.00039388723347746213 0.0001521479389526023 -0.00039388723347746213 0.009362220787094457" free_energy=-1.4244391411466133 pbc="T T T"
Na      -0.04167578      -0.00562668      -0.21361961      -0.09101808       0.11317250      -2.35079412       0.00000321       0.00000468       0.00196335      -0.00009570       0.00007861      -0.00000386      -0.37576257
Cl       0.16402708      -0.17934356       2.41582526      -0.00394165       0.00264651       0.01466910       0.00000041       0.00000023       0.00010971      -0.00000149       0.00000048      -0.00000030      -0.00889493
Na       0.05028814      -0.12452881       4.89420478       0.00109339       0.00009630      -0.02517331       0.00000021       0.00000015       0.00009406       0.00000327      -0.00000443      -0.00000016      -0.00681813
Cl      -0.09090076       0.05514540       7.72922080       0.09386634      -0.11591530       2.36129833       0.00000301       0.00000460       0.00194770      -0.00009093       0.00007370      -0.00000372      -0.37368577
Na       0.00415394       4.88820746       0.05390583      -0.00398978       0.02348945      -0.26546358       0.00000007       0.00000205       0.00040778      -0.00002400       0.00000246      -0.00000034      -0.04892494
Cl      -0.05961597       4.99808695       2.61750012       0.00033966      -0.00130335       0.03821339       0.00000004       0.00000010       0.00015747       0.00000242      -0.00000202      -0.00000006      -0.01509358
Na      -0.07478709       5.00090253       4.91218921       0.00142029       0.00031230      -0.03052932       0.00000004       0.00000001       0.00016820       0.00000077       0.00000084       0.00000001      -0.01648486
Cl      -0.01564342       5.02565705       7.40112210       0.00222982      -0.02249840       0.25777952       0.00000008       0.00000196       0.00041851      -0.00002565       0.00000531      -0.00000027      -0.05031622
Na       4.96611780      -0.02361840      -0.06376550       0.03339997       0.04481174      -1.11330658       0.00000106       0.00000193       0.00116007      -0.00004724      -0.00003509       0.00000143      -0.16063831
Cl       4.88123877      -0.14212172       2.48465048       0.00387176       0.01250055       0.03431885       0.00000022       0.00000268       0.00015434       0.00001339       0.00000218       0.00000073      -0.01504393
Na       4.97309430       0.22313668       4.75652324      -0.00255979      -0.01185957      -0.05368627       0.00000017       0.00000267       0.00012569       0.00001424       0.00000436       0.00000062      -0.01129739
Cl       5.01127265       0.03704445       7.63596339      -0.03471194      -0.04545272       1.13267400       0.00000101       0.00000192       0.00113142      -0.00004639      -0.00003291       0.00000132      -0.15689177
Na       5.05018572       4.91557863       0.00000098      -0.02597551       0.04587810      -0.49523777       0.00000140       0.00000425       0.00062553      -0.00004816       0.00002841      -0.00000243      -0.07980849
Cl       5.05423526       4.96864918       2.57710117      -0.00289604       0.00176551      -0.00117417       0.00000044       0.00000034       0.00010223       0.00000506      -0.00000461      -0.00000037      -0.00793427
Na       4.81319093       5.17311847       5.14676780       0.00655324      -0.00512337       0.02669264       0.00000081       0.00000051       0.00013643      -0.00000012       0.00000092      -0.00000064      -0.01248488
Cl       4.96643227       5.06113408       7.50479706       0.02231831      -0.04252024       0.46971930       0.00000176       0.00000442       0.00065974      -0.00005333       0.00003394      -0.00000270      -0.08435909
