16
Lattice="9.3 0.0 0.0 0.0 9.3 0.0 0.0 0.0 9.3" Properties=species:S:1:pos:R:3:forces:R:3:stresses:R:6:energies:R:1 energy=-0.5647198480706583 stress="0.0 0.0 0.0 0.0 0.0 0.0 0.0 0.0 0.004757251266543795" free_energy=-0.5647198480706583 pbc="T T T"
Na       0.00000000       0.00000000       0.00000000       0.00000000       0.00000000      -0.32996497       0.00000000       0.00000000       0.00047344       0.00000000       0.00000000       0.00000000      -0.05975253
Cl       0.00000000       0.00000000       2.50000000       0.00000000       0.00000000       0.00000000       0.00000000       0.00000000       0.00012121       0.00000000       0.00000000       0.00000000      -0.01083745
Na       0.00000000       0.00000000       5.00000000       0.00000000       0.00000000       0.00000000       0.00000000       0.00000000       0.00012121       0.00000000       0.00000000       0.00000000      -0.01083745
Cl       0.00000000       0.00000000       7.50000000       0.00000000       0.00000000       0.32996497       0.00000000       0.00000000       0.00047344       0.00000000       0.00000000       0.00000000      -0.05975253
Na       0.00000000       5.00000000       0.00000000       0.00000000       0.00000000      -0.32996497       0.00000000       0.00000000       0.00047344       0.00000000       0.00000000       0.00000000      -0.05975253
Cl       0.00000000       5.00000000       2.50000000       0.00000000       0.00000000       0.00000000       0.00000000       0.00000000       0.00012121       0.00000000       0.00000000       0.00000000      -0.01083745
Na       0.00000000       5.00000000       5.00000000       0.00000000       0.00000000       0.00000000       0.00000000       0.00000000       0.00012121       0.00000000       0.00000000       0.00000000      -0.01083745
Cl       0.00000000       5.00000000       7.50000000       0.00000000       0.00000000       0.32996497       0.00000000       0.00000000       0.00047344       0.00000000       0.00000000       0.00000000      -0.05975253
Na       5.00000000       0.00000000       0.00000000       0.00000000       0.00000000      -0.32996497       0.00000000       0.00000000       0.00047344       0.00000000       0.00000000       0.00000000      -0.05975253
Cl       5.00000000       0.00000000       2.50000000       0.00000000       0.00000000       0.00000000       0.00000000       0.00000000       0.00012121       0.00000000       0.00000000       0.00000000      -0.01083745
Na       5.00000000       0.00000000       5.00000000       0.00000000       0.00000000       0.00000000       0.00000000       0.00000000       0.00012121       0.00000000       0.00000000       0.00000000      -0.01083745
Cl       5.00000000       0.00000000       7.50000000       0.00000000       0.00000000       0.32996497       0.00000000       0.00000000       0.00047344       0.00000000       0.00000000       0.00000000      -0.05975253
Na       5.00000000       5.00000000       0.00000000       0.00000000       0.00000000      -0.32996497       0.00000000       0.00000000       0.00047344       0.00000000       0.00000000       0.00000000      -0.05975253
Cl       5.00000000       5.00000000       2.50000000       0.00000000       0.00000000       0.00000000       0.00000000       0.00000000       0.00012121       0.00000000       0.00000000       0.00000000      -0.01083745
Na       5.00000000       5.00000000       5.00000000       0.00000000       0.00000000       0.00000000       0.00000000       0.00000000       0.00012121       0.00000000       0.00000000       0.00000000      -0.01083745
Cl       5.00000000       5.00000000       7.50000000       0.00000000       0.00000000       0.32996497       0.00000000       0.00000000       0.00047344       0.00000000       0.00000000       0.00000000      -0.05975253
