16
Lattice="9.3 0.0 0.0 0.0 9.3 0.0 0.0 0.0 9.3" Properties=species:S:1:pos:R:3:forces:R:3:stresses:R:6:energies:R:1 energy=-0.6662664139641503 stress="1.155260428608571e-06 -9.199155531322693e-07 2.4153194697968516e-05 -9.199155531322693e-07 3.01639411624385e-06 -7.396315399741261e-05 2.4153194697968516e-05 -7.396315399741261e-05 0.005437180497431997" free_energy=-0.6662664139641503 pbc="T T T"
Na      -0.01667031      -0.00225067      -0.08544784      -0.00765212       0.00986950      -0.68635649       0.00000016       0.00000020       0.00077953      -0.00001233       0.00001053      -0.00000018      -0.10507900
Cl       0.06561083      -0.07173742       2.46633011      -0.00181113       0.00126542       0.00630507       0.00000008       0.00000004       0.00011503      -0.00000091       0.00000059      -0.00000006      -0.01001885
Na       0.02011526      -0.04981152       4.95768191       0.00014966       0.00038541      -0.01289489       0.00000004       0.00000004       0.00010596       0.00000175      -0.00000208      -0.00000004      -0.00878874
Cl      -0.03636030       0.02205816       7.59168832       0.00931358      -0.01152034       0.69294631       0.00000013       0.00000020       0.00077046      -0.00000967       0.00000786      -0.00000016      -0.10384889
Na       0.00166158       4.95528298       0.02156233      -0.00161907       0.00932765      -0.25807821       0.00000001       0.00000031       0.00039752      -0.00000907       0.00000087      -0.00000005      -0.04903788
Cl      -0.02384639       4.99923478       2.54700005       0.00024312      -0.00060868       0.01288991       0.00000001       0.00000002       0.00013089       0.00000103      -0.00000076      -0.00000001      -0.01215030
Na      -0.02991484       5.00036101       4.96487568       0.00049757       0.00013368      -0.00971426       0.00000001       0.00000000       0.00013514       0.00000028       0.00000039       0.00000000      -0.01272279
Cl      -0.00625737       5.01026282       7.46044884       0.00087839      -0.00885265       0.25490257       0.00000001       0.00000030       0.00040178      -0.00000982       0.00000203      -0.00000004      -0.04961037
Na       4.98644712      -0.00944736      -0.02550620       0.00471641       0.00631002      -0.45961472       0.00000007       0.00000013       0.00058864      -0.00000858      -0.00000635       0.00000009      -0.07646563
Cl       4.95249551      -0.05684869       2.49386019       0.00125536       0.00370932       0.01282915       0.00000003       0.00000029       0.00013220       0.00000343       0.00000036       0.00000008      -0.01236797
Na       4.98923772       0.08925467       4.90260930      -0.00060976      -0.00373943      -0.02391849       0.00000002       0.00000031       0.00011696       0.00000332       0.00000138       0.00000006      -0.01031092
Cl       5.00450906       0.01481778       7.55438535      -0.00536202      -0.00627991       0.47070406       0.00000006       0.00000014       0.00057340      -0.00000868      -0.00000533       0.00000007      -0.07440858
Na       5.02007429       4.96623145       0.00000039      -0.00686356       0.01226833      -0.33380688       0.00000014       0.00000044       0.00046944      -0.00001290       0.00000773      -0.00000025      -0.05929719
Cl       5.02169410       4.98745967       2.53084047      -0.00138649       0.00085636      -0.00005296       0.00000008       0.00000006       0.00011250       0.00000229      -0.00000211      -0.00000007      -0.00967969
Na       4.92527637       5.06924739       5.05870712       0.00250695      -0.00199222       0.00982394       0.00000013       0.00000008       0.00012539       0.00000055      -0.00000041      -0.00000010      -0.01143105
Cl       4.98657291       5.02445363       7.50191882       0.00574309      -0.01113248       0.32403590       0.00000019       0.00000046       0.00048233      -0.00001465       0.00000943      -0.00000028      -0.06104856
