16
Lattice="9.3 0.0 0.0 0.0 9.3 0.0 0.0 0.0 9.3" Properties=species:S:1:pos:R:3:forces:R:3:stresses:R:6:energies:R:1 energy=-0.8756579556933424 stress="5.723083365523887e-06 -4.271226268393502e-06 7.584306536814772e-05 -4.271226268393502e-06 1.377362712970392e-05 -0.00018792141438677985 7.584306536814772e-05 -0.00018792141438677985 0.006691054441941675" free_energy=-0.8756579556933424 pbc="T T T"
Na      -0.03334063      -0.00450135      -0.17089569      -0.03663769       0.04593771      -1.38284224       0.00000113       0.00000157       0.00131478      -0.00004513       0.00003748      -0.00000132      -0.19487969
Cl       0.13122166      -0.14347485       2.43266021      -0.00329906       0.00224579       0.01204021       0.00000027       0.00000015       0.00010907      -0.00000136       0.00000063      -0.00000020      -0.00925416
Na       0.04023051      -0.09962305       4.91536382       0.00072052       0.00026127      -0.02179813       0.00000014       0.00000011       0.00009520       0.00000279      -0.00000362      -0.00000011      -0.00736185
Cl      -0.07272061       0.04411632       7.68337664       0.03921624      -0.04844476       1.39260017       0.00000100       0.00000152       0.00130091      -0.00004097       0.00003323      -0.00000123      -0.19298738
Na       0.00332315       4.91056596       0.04312467      -0.00260700       0.01458312      -0.20094786       0.00000004       0.00000098       0.00033378      -0.00001420       0.00000124      -0.00000017      -0.04020054
Cl      -0.04769278       4.99846956       2.59400010       0.00034905      -0.00110065       0.02879926       0.00000002       0.00000006       0.00014415       0.00000193      -0.00000154      -0.00000004      -0.01395845
Na      -0.05982968       5.00072202       4.92975137       0.00108263       0.00025698      -0.02258203       0.00000002       0.00000000       0.00015252       0.00000058       0.00000070       0.00000001      -0.01508241
Cl      -0.01251473       5.02052564       7.42089768       0.00117531      -0.01373945       0.19473063       0.00000004       0.00000092       0.00034216      -0.00001555       0.00000348      -0.00000012      -0.04132450
Na       4.97289424      -0.01889472      -0.05101240       0.01384682       0.01855340      -0.63617262       0.00000037       0.00000068       0.00073891      -0.00002229      -0.00001653       0.00000050      -0.09897819
Cl       4.90499102      -0.11369738       2.48772038       0.00288734       0.00908285       0.02699038       0.00000013       0.00000149       0.00014379       0.00000917       0.00000135       0.00000041      -0.01411719
Na       4.97847544       0.17850934       4.80521859      -0.00176875      -0.00870656      -0.04439051       0.00000009       0.00000150       0.00011919       0.00000961       0.00000315       0.00000034      -0.01079614
Cl       5.00901812       0.02963556       7.60877071      -0.01496541      -0.01892969       0.65357276       0.00000034       0.00000068       0.00071431      -0.00002185      -0.00001474       0.00000043      -0.09565714
Na       5.04014858       4.93246290       0.00000078      -0.01362417       0.02429477      -0.33345875       0.00000057       0.00000173       0.00046139      -0.00002565       0.00001532      -0.00000099      -0.05842345
Cl       5.04338821       4.97491934       2.56168094      -0.00246994       0.00151489      -0.00069916       0.00000029       0.00000022       0.00010349       0.00000414      -0.00000379      -0.00000025      -0.00851310
Na       4.85055275       5.13849477       5.11741424       0.00515111      -0.00404960       0.02081755       0.00000050       0.00000032       0.00012975       0.00000032       0.00000018      -0.00000040      -0.01210671
Cl       4.97314581       5.04890726       7.50383765       0.01094301      -0.02176006       0.31334035       0.00000078       0.00000183       0.00048765      -0.00002947       0.00001930      -0.00000114      -0.06201706
