16
Lattice="9.4 0.0 0.0 0.0 9.4 0.0 0.0 0.0 9.4" Properties=species:S:1:pos:R:3:forces:R:3:stresses:R:6:energies:R:1 energy=-0.5683243828042549 stress="2.1799554835485964e-06 -1.5169528639585222e-06 2.991742505056013e-05 -1.5169528639585222e-06 5.339342381936497e-06 -7.764016462288123e-05 2.991742505056013e-05 -7.764016462288123e-05 0.004597444940769354" free_energy=-0.5683243828042549 pbc="T T T"
Na      -0.02500547      -0.00337601      -0.12817177      -0.01094294       0.01408960      -0.65671335       0.00000033       0.00000042       0.00072479      -0.00001704       0.00001453      -0.00000037      -0.10046085
Cl       0.09841625      -0.10760614       2.44949516      -0.00259153       0.00178776       0.00924970       0.00000016       0.00000009       0.00010848      -0.00000115       0.00000065      -0.00000012      -0.00962908
Na       0.03017289      -0.07471729       4.93652287       0.00039871       0.00036662      -0.01775284       0.00000008       0.00000007       0.00009695       0.00000226      -0.00000280      -0.00000007      -0.00801141
Cl      -0.05454046       0.03308724       7.63753248       0.01313576      -0.01624398       0.66521650       0.00000026       0.00000040       0.00071326      -0.00001363       0.00001108      -0.00000032      -0.09884318
Na       0.00249236       4.93292447       0.03234350      -0.00163419       0.00859377      -0.15062666       0.00000002       0.00000042       0.00027597      -0.00000783       0.00000052      -0.00000008      -0.03331961
Cl      -0.03576958       4.99885217       2.57050007       0.00031514      -0.00086911       0.02040726       0.00000001       0.00000004       0.00013268       0.00000144      -0.00000111      -0.00000002      -0.01298407
Na      -0.04487226       5.00054152       4.94731353       0.00077698       0.00019706      -0.01569328       0.00000001       0.00000000       0.00013881       0.00000041       0.00000054       0.00000000      -0.01383504
Cl      -0.00938605       5.01539423       7.44067326       0.00054207      -0.00792172       0.14591268       0.00000002       0.00000038       0.00028210      -0.00000886       0.00000218      -0.00000005      -0.03417058
Na       4.97967068      -0.01417104      -0.03825930       0.00530610       0.00709042      -0.36021569       0.00000012       0.00000022       0.00047894      -0.00001021      -0.00000756       0.00000016      -0.06286335
Cl       4.92874326      -0.08527303       2.49079029       0.00201811       0.00616378       0.01978577       0.00000007       0.00000072       0.00013363       0.00000580       0.00000075       0.00000020      -0.01322024
Na       4.98385658       0.13388201       4.85391395      -0.00111952      -0.00602099      -0.03449218       0.00000005       0.00000074       0.00011377       0.00000592       0.00000214       0.00000016      -0.01045226
Cl       5.00676359       0.02222667       7.58157803      -0.00620469      -0.00723321       0.37492210       0.00000010       0.00000024       0.00045907      -0.00001010      -0.00000617       0.00000012      -0.06009537
Na       5.03011143       4.94934718       0.00000059      -0.00677229       0.01225556      -0.22259435       0.00000021       0.00000063       0.00034599      -0.00001285       0.00000782      -0.00000036      -0.04346307
Cl       5.03254115       4.98118951       2.54626070      -0.00196696       0.00121166      -0.00031636       0.00000017       0.00000013       0.00010461       0.00000317      -0.00000291      -0.00000014      -0.00909591
Na       4.88791456       5.10387108       5.08806068       0.00380676      -0.00300913       0.01518634       0.00000027       0.00000018       0.00012351       0.00000052      -0.00000024      -0.00000022      -0.01175660
Cl       4.97985936       5.03668045       7.50287824       0.00493249      -0.01045809       0.20772438       0.00000031       0.00000068       0.00036489      -0.00001550       0.00001049      -0.00000043      -0.04612377
