16
Lattice="9.5 0.0 0.0 0.0 9.5 0.0 0.0 0.0 9.5" Properties=species:S:1:pos:R:3:forces:R:3:stresses:R:6:energies:R:1 energy=-0.3542253757241796 stress="0.0 0.0 0.0 0.0 0.0 0.0 0.0 0.0 0.0030594656055798197" free_energy=-0.3542253757241796 pbc="T T T"
Na       0.00000000       0.00000000       0.00000000       0.00000000       0.00000000      -0.14264115       0.00000000       0.00000000       0.00026872       0.00000000       0.00000000       0.00000000      -0.03344072
Cl       0.00000000       0.00000000       2.50000000       0.00000000       0.00000000       0.00000000       0.00000000       0.00000000       0.00011372       0.00000000       0.00000000       0.00000000      -0.01083745
Na       0.00000000       0.00000000       5.00000000       0.00000000       0.00000000       0.00000000       0.00000000       0.00000000       0.00011372       0.00000000       0.00000000       0.00000000      -0.01083745
Cl       0.00000000       0.00000000       7.50000000       0.00000000       0.00000000       0.14264115       0.00000000       0.00000000       0.00026872       0.00000000       0.00000000       0.00000000      -0.03344072
Na       0.00000000       5.00000000       0.00000000       0.00000000       0.00000000      -0.14264115       0.00000000       0.00000000       0.00026872       0.00000000       0.00000000       0.00000000      -0.03344072
Cl       0.00000000       5.00000000       2.50000000       0.00000000       0.00000000       0.00000000       0.00000000       0.00000000       0.00011372       0.00000000       0.00000000       0.00000000      -0.01083745
Na       0.00000000       5.00000000       5.00000000       0.00000000       0.00000000       0.00000000       0.00000000       0.00000000       0.00011372       0.00000000       0.00000000       0.00000000      -0.01083745
Cl       0.00000000       5.00000000       7.50000000       0.00000000       0.00000000       0.14264115       0.00000000       0.00000000       0.00026872       0.00000000       0.00000000       0.00000000      -0.03344072
Na       5.00000000       0.00000000       0.00000000       0.00000000       0.00000000      -0.14264115       0.00000000       0.00000000       0.00026872       0.00000000       0.00000000       0.00000000      -0.03344072
Cl       5.00000000       0.00000000       2.50000000       0.00000000       0.00000000       0.00000000       0.00000000       0.00000000       0.00011372       0.00000000       0.00000000       0.00000000      -0.01083745
Na       5.00000000       0.00000000       5.00000000       0.00000000       0.00000000       0.00000000       0.00000000       0.00000000       0.00011372       0.00000000       0.00000000       0.00000000      -0.01083745
Cl       5.00000000       0.00000000       7.50000000       0.00000000       0.00000000       0.14264115       0.00000000       0.00000000       0.00026872       0.00000000       0.00000000       0.00000000      -0.03344072
Na       5.00000000       5.00000000       0.00000000       0.00000000       0.00000000      -0.14264115       0.00000000       0.00000000       0.00026872       0.00000000       0.00000000       0.00000000      -0.03344072
Cl       5.00000000       5.00000000       2.50000000       0.00000000       0.00000000       0.00000000       0.00000000       0.00000000       0.00011372       0.00000000       0.00000000       0.00000000      -0.01083745
Na       5.00000000       5.00000000       5.00000000       0.00000000       0.00000000       0.00000000       0.00000000       0.00000000       0.00011372       0.00000000       0.00000000       0.00000000      -0.01083745
Cl       5.00000000       5.00000000       7.50000000       0.00000000       0.00000000       0.14264115       0.00000000       0.00000000       0.00026872       0.00000000       0.00000000       0.00000000      -0.03344072
