16
Lattice="9.5 0.0 0.0 0.0 9.5 0.0 0.0 0.0 9.5" Properties=species:S:1:pos:R:3:forces:R:3:stresses:R:6:energies:R:1 energy=-0.37244047564844407 stress="1.8324711019606248e-07 -1.3034734400900086e-07 4.319642993413839e-06 -1.3034734400900086e-07 4.3459073679577427e-07 -1.3775883644865014e-05 4.319642993413839e-06 -1.3775883644865014e-05 0.003180777855383633" free_energy=-0.37244047564844407 pbc="T T T"
Na      -0.00833516      -0.00112534      -0.04272392      -0.00068109       0.00107110      -0.21059356       0.00000002       0.00000002       0.00032852      -0.00000248       0.00000229      -0.00000002      -0.04234148
Cl       0.03280542      -0.03586871       2.48316505      -0.00094987       0.00067178       0.00321706       0.00000002       0.00000001       0.00011080      -0.00000048       0.00000035      -0.00000001      -0.01042220
Na       0.01005763      -0.02490576       4.97884096       0.00000315       0.00028033      -0.00704896       0.00000001       0.00000001       0.00010594       0.00000093      -0.00000106      -0.00000001      -0.00972019
Cl      -0.01818015       0.01102908       7.54584416       0.00162781      -0.00202321       0.21442547       0.00000001       0.00000002       0.00032366      -0.00000107       0.00000088      -0.00000002      -0.04163948
Na       0.00083079       4.97764149       0.01078117      -0.00051020       0.00254515      -0.12605515       0.00000000       0.00000004       0.00024898      -0.00000214       0.00000010      -0.00000001      -0.03054276
Cl      -0.01192319       4.99961739       2.52350002       0.00013702      -0.00031911       0.00612262       0.00000000       0.00000000       0.00011789       0.00000050      -0.00000036      -0.00000000      -0.01143976
Na      -0.01495742       5.00018051       4.98243784       0.00023980       0.00006775      -0.00451887       0.00000000       0.00000000       0.00011990       0.00000013       0.00000019       0.00000000      -0.01172851
Cl      -0.00312868       5.00513141       7.48022442       0.00013337      -0.00229379       0.12445141       0.00000000       0.00000004       0.00025099      -0.00000251       0.00000065      -0.00000000      -0.03083151
Na       4.99322356      -0.00472368      -0.01275310       0.00070297       0.00093087      -0.17033090       0.00000001       0.00000001       0.00029361      -0.00000200      -0.00000147       0.00000001      -0.03713268
Cl       4.97624775      -0.02842434       2.49693010       0.00058719       0.00167265       0.00621289       0.00000001       0.00000006       0.00011874       0.00000136       0.00000010       0.00000002      -0.01157130
Na       4.99461886       0.04462734       4.95130465      -0.00023671      -0.00177161      -0.01250880       0.00000000       0.00000007       0.00011075       0.00000119       0.00000061       0.00000001      -0.01042099
Cl       5.00225453       0.00740889       7.52719268      -0.00105345      -0.00083192       0.17662680       0.00000001       0.00000002       0.00028561      -0.00000216      -0.00000096       0.00000000      -0.03598237
Na       5.01003714       4.98311573       0.00000020      -0.00151330       0.00280854      -0.14466909       0.00000001       0.00000005       0.00026703      -0.00000286       0.00000180      -0.00000003      -0.03320752
Cl       5.01084705       4.99372984       2.51542023      -0.00072976       0.00045116       0.00006237       0.00000002       0.00000002       0.00010968       0.00000112      -0.00000103      -0.00000002      -0.01026128
Na       4.96263819       5.03462369       5.02935356       0.00124079      -0.00099106       0.00475427       0.00000003       0.00000002       0.00011567       0.00000034      -0.00000030      -0.00000002      -0.01112610
Cl       4.99328645       5.01222682       7.50095941       0.00100227      -0.00226864       0.13985245       0.00000002       0.00000005       0.00027301      -0.00000364       0.00000253      -0.00000003      -0.03407234
