16
Lattice="9.5 0.0 0.0 0.0 9.5 0.0 0.0 0.0 9.5" Properties=species:S:1:pos:R:3:forces:R:3:stresses:R:6:energies:R:1 energy=-0.6868359480549372 stress="9.577248119658762e-06 -5.9713235231479764e-06 9.210475967377667e-05 -5.9713235231479764e-06 2.1961620125716072e-05 -0.00016299463023150044 9.210475967377667e-05 -0.00016299463023150044 0.0050703075753274355" free_energy=-0.6868359480549372 pbc="T T T"
Na      -0.05001094      -0.00675202      -0.25634353      -0.04951795       0.06201062      -1.26281572       0.00000211       0.00000295       0.00113969      -0.00005767       0.00004782      -0.00000247      -0.17750546
Cl       0.19683250      -0.21521227       2.39899032      -0.00452697       0.00299671       0.01713174       0.00000050       0.00000027       0.00009705      -0.00000135       0.00000019      -0.00000036      -0.00855191
Na       0.06034577      -0.14943457       4.87304573       0.00150154      -0.00010887      -0.02799413       0.00000026       0.00000017       0.00008215       0.00000326      -0.00000460      -0.00000019      -0.00636204
Cl      -0.10908091       0.06617449       7.77506496       0.05254338      -0.06489846       1.27367812       0.00000186       0.00000284       0.00112478      -0.00005306       0.00004302      -0.00000230      -0.17531559
Na       0.00498473       4.86584895       0.06468700      -0.00198604       0.00895094      -0.06614288       0.00000006       0.00000083       0.00017083      -0.00000696      -0.00000004      -0.00000017      -0.01924543
Cl      -0.07153916       4.99770434       2.64100015       0.00028034      -0.00147700       0.04882445       0.00000005       0.00000012       0.00015206       0.00000256      -0.00000224      -0.00000007      -0.01641289
Na      -0.08974451       5.00108303       4.89462705       0.00179714       0.00036163      -0.03971109       0.00000005       0.00000001       0.00016364       0.00000086       0.00000082       0.00000002      -0.01806565
Cl      -0.01877210       5.03078845       7.38134651      -0.00009144      -0.00783557       0.05702952       0.00000006       0.00000072       0.00018241      -0.00000867       0.00000302      -0.00000008      -0.02089819
Na       4.95934136      -0.02834208      -0.07651860       0.01172561       0.01568418      -0.39050517       0.00000049       0.00000089       0.00048306      -0.00002067      -0.00001531       0.00000066      -0.06599336
Cl       4.85748653      -0.17054607       2.48158058       0.00497528       0.01643156       0.04161531       0.00000031       0.00000389       0.00014507       0.00001627       0.00000283       0.00000105      -0.01598143
Na       4.96771316       0.26776401       4.70782789      -0.00349208      -0.01551444      -0.06237729       0.00000024       0.00000385       0.00011685       0.00001743       0.00000509       0.00000092      -0.01191281
Cl       5.01352718       0.04445334       7.66315606      -0.01320881      -0.01660130       0.41126715       0.00000042       0.00000086       0.00045484      -0.00001951      -0.00001305       0.00000053      -0.06192474
Na       5.06022286       4.89869436       0.00000117      -0.00891588       0.01633562      -0.14782041       0.00000053       0.00000162       0.00025274      -0.00001701       0.00001052      -0.00000091      -0.03143914
Cl       5.06508231       4.96237902       2.59252141      -0.00324740       0.00196436      -0.00171624       0.00000054       0.00000041       0.00008862       0.00000520      -0.00000472      -0.00000045      -0.00736225
Na       4.77582912       5.20774216       5.17612136       0.00802833      -0.00624176       0.03278570       0.00000106       0.00000066       0.00012620      -0.00000072       0.00000176      -0.00000084      -0.01289409
Cl       4.95971872       5.07336089       7.50575647       0.00413495      -0.01205822       0.11675095       0.00000104       0.00000187       0.00029032      -0.00002294       0.00001701      -0.00000129      -0.03697097
