16
Lattice="9.600000000000001 0.0 0.0 0.0 9.600000000000001 0.0 0.0 0.0 9.600000000000001" Properties=species:S:1:pos:R:3:forces:R:3:stresses:R:6:energies:R:1 energy=-0.35134071691280633 stress="1.4856492965110132e-06 -8.478412413468268e-07 1.3758342783850236e-05 -8.478412413468268e-07 3.4494437848552487e-06 -2.8794660324064544e-05 1.3758342783850236e-05 -2.8794660324064544e-05 0.0029349000546244545" free_energy=-0.35134071691280633 pbc="T T T"
Na      -0.02500547      -0.00337601      -0.12817177      -0.00374125       0.00519855      -0.29361108       0.00000019       0.00000021       0.00038175      -0.00000852       0.00000758      -0.00000020      -0.05226691
Cl       0.09841625      -0.10760614       2.44949516      -0.00259153       0.00178776       0.00924970       0.00000015       0.00000008       0.00010184      -0.00000108       0.00000061      -0.00000011      -0.00962908
Na       0.03017289      -0.07471729       4.93652287       0.00039871       0.00036662      -0.01775284       0.00000008       0.00000006       0.00009102       0.00000212      -0.00000263      -0.00000006      -0.00801141
Cl      -0.05454046       0.03308724       7.63753248       0.00593407      -0.00735293       0.30211423       0.00000012       0.00000019       0.00037094      -0.00000532       0.00000434      -0.00000015      -0.05064924
Na       0.00249236       4.93292447       0.03234350      -0.00105010       0.00453860      -0.06149653       0.00000001       0.00000020       0.00016966      -0.00000319      -0.00000011      -0.00000004      -0.01975930
Cl      -0.03576958       4.99885217       2.57050007       0.00031514      -0.00086911       0.02040726       0.00000001       0.00000003       0.00012456       0.00000136      -0.00000104      -0.00000002      -0.01298407
Na      -0.04487226       5.00054152       4.94731353       0.00077698       0.00019706      -0.01569328       0.00000001       0.00000000       0.00013032       0.00000039       0.00000051       0.00000000      -0.01383504
Cl      -0.00938605       5.01539423       7.44067326      -0.00004201      -0.00386655       0.05678255       0.00000001       0.00000017       0.00017542      -0.00000416       0.00000144      -0.00000002      -0.02061026
Na       4.97967068      -0.01417104      -0.03825930       0.00193282       0.00255862      -0.15816421       0.00000006       0.00000011       0.00026828      -0.00000543      -0.00000400       0.00000008      -0.03468285
Cl       4.92874326      -0.08527303       2.49079029       0.00201811       0.00616378       0.01978577       0.00000006       0.00000068       0.00012545       0.00000545       0.00000070       0.00000019      -0.01322024
Na       4.98385658       0.13388201       4.85391395      -0.00111952      -0.00602099      -0.03449218       0.00000004       0.00000069       0.00010681       0.00000555       0.00000201       0.00000015      -0.01045226
Cl       5.00676359       0.02222667       7.58157803      -0.00283141      -0.00270141       0.17287062       0.00000004       0.00000013       0.00024963      -0.00000532      -0.00000270       0.00000004      -0.03191487
Na       5.03011143       4.94934718       0.00000059      -0.00308693       0.00585075      -0.09588017       0.00000009       0.00000028       0.00020367      -0.00000581       0.00000374      -0.00000015      -0.02490599
Cl       5.03254115       4.98118951       2.54626070      -0.00196696       0.00121166      -0.00031636       0.00000016       0.00000012       0.00009820       0.00000297      -0.00000273      -0.00000013      -0.00909591
Na       4.88791456       5.10387108       5.08806068       0.00380676      -0.00300913       0.01518634       0.00000026       0.00000017       0.00011595       0.00000049      -0.00000022      -0.00000021      -0.01175660
Cl       4.97985936       5.03668045       7.50287824       0.00124713      -0.00405328       0.08101019       0.00000019       0.00000032       0.00022141      -0.00000829       0.00000625      -0.00000023      -0.02756669
