16
Lattice="9.600000000000001 0.0 0.0 0.0 9.600000000000001 0.0 0.0 0.0 9.600000000000001" Properties=species:S:1:pos:R:3:forces:R:3:stresses:R:6:energies:R:1 energy=-0.520867118397834 stress="7.4280967193590324e-06 -3.995417742420292e-06 6.350680058202328e-05 -3.995417742420292e-06 1.7505625300238017e-05 -9.88863329767221e-05 6.350680058202328e-05 -9.88863329767221e-05 0.003955287005337007" free_energy=-0.520867118397834 pbc="T T T"
Na      -0.05001094      -0.00675202      -0.25634353      -0.03081900       0.03892531      -0.85390361       0.00000142       0.00000191       0.00081469      -0.00003904       0.00003269      -0.00000163      -0.12397852
Cl       0.19683250      -0.21521227       2.39899032      -0.00452697       0.00299671       0.01713174       0.00000049       0.00000026       0.00009405      -0.00000131       0.00000019      -0.00000035      -0.00855191
Na       0.06034577      -0.14943457       4.87304573       0.00150154      -0.00010887      -0.02799413       0.00000025       0.00000016       0.00007961       0.00000316      -0.00000446      -0.00000018      -0.00636204
Cl      -0.10908091       0.06617449       7.77506496       0.03384443      -0.04181315       0.86476601       0.00000118       0.00000180       0.00080024      -0.00003457       0.00002804      -0.00000146      -0.12178865
Na       0.00498473       4.86584895       0.06468700      -0.00167178       0.00676909      -0.04039697       0.00000005       0.00000060       0.00013782      -0.00000435      -0.00000039      -0.00000014      -0.01505900
Cl      -0.07153916       4.99770434       2.64100015       0.00028034      -0.00147700       0.04882445       0.00000005       0.00000012       0.00014736       0.00000248      -0.00000217      -0.00000007      -0.01641289
Na      -0.08974451       5.00108303       4.89462705       0.00179714       0.00036163      -0.03971109       0.00000005       0.00000001       0.00015858       0.00000083       0.00000079       0.00000002      -0.01806565
Cl      -0.01877210       5.03078845       7.38134651      -0.00040570      -0.00565372       0.03128361       0.00000006       0.00000049       0.00014905      -0.00000600       0.00000258      -0.00000005      -0.01671176
Na       4.95934136      -0.02834208      -0.07651860       0.00725019       0.00967173      -0.26089103       0.00000034       0.00000062       0.00035576      -0.00001470      -0.00001087       0.00000046      -0.04829334
Cl       4.85748653      -0.17054607       2.48158058       0.00497528       0.01643156       0.04161531       0.00000030       0.00000377       0.00014058       0.00001577       0.00000275       0.00000101      -0.01598143
Na       4.96771316       0.26776401       4.70782789      -0.00349208      -0.01551444      -0.06237729       0.00000023       0.00000373       0.00011323       0.00001689       0.00000493       0.00000089      -0.01191281
Cl       5.01352718       0.04445334       7.66315606      -0.00873339      -0.01058884       0.28165301       0.00000027       0.00000059       0.00032841      -0.00001357      -0.00000868       0.00000033      -0.04422472
Na       5.06022286       4.89869436       0.00000117      -0.00608145       0.01140965      -0.09768570       0.00000035       0.00000108       0.00019565      -0.00001154       0.00000735      -0.00000060      -0.02386812
Cl       5.06508231       4.96237902       2.59252141      -0.00324740       0.00196436      -0.00171624       0.00000052       0.00000040       0.00008588       0.00000504      -0.00000458      -0.00000044      -0.00736225
Na       4.77582912       5.20774216       5.17612136       0.00802833      -0.00624176       0.03278570       0.00000102       0.00000064       0.00012230      -0.00000070       0.00000171      -0.00000081      -0.01289409
Cl       4.95971872       5.07336089       7.50575647       0.00130052      -0.00713225       0.06661624       0.00000085       0.00000132       0.00023206      -0.00001728       0.00001363      -0.00000097      -0.02939995
