16
Lattice="9.700000000000001 0.0 0.0 0.0 9.700000000000001 0.0 0.0 0.0 9.700000000000001" Properties=species:S:1:pos:R:3:forces:R:3:stresses:R:6:energies:R:1 energy=-0.35372537649239166 stress="3.899193143924051e-06 -1.7900126989887434e-06 2.764887620125095e-05 -1.7900126989887434e-06 9.300158503991068e-06 -3.7027497719353e-05 2.764887620125095e-05 -3.7027497719353e-05 0.0028434371297488036" free_energy=-0.35372537649239166 pbc="T T T"
Na      -0.04167578      -0.00562668      -0.21361961      -0.00996536       0.01310657      -0.40293071       0.00000056       0.00000066       0.00045116      -0.00001680       0.00001454      -0.00000060      -0.06563076
Cl       0.16402708      -0.17934356       2.41582526      -0.00394165       0.00264651       0.01466910       0.00000035       0.00000019       0.00009360      -0.00000127       0.00000041      -0.00000025      -0.00889493
Na       0.05028814      -0.12452881       4.89420478       0.00109339       0.00009630      -0.02517331       0.00000018       0.00000013       0.00008025       0.00000279      -0.00000378      -0.00000013      -0.00681813
Cl      -0.09090076       0.05514540       7.72922080       0.01281362      -0.01584937       0.41343492       0.00000039       0.00000059       0.00043781      -0.00001273       0.00001035      -0.00000048      -0.06355396
Na       0.00415394       4.88820746       0.05390583      -0.00129992       0.00481424      -0.02618289       0.00000003       0.00000034       0.00012110      -0.00000246      -0.00000050      -0.00000009      -0.01309051
Cl      -0.05961597       4.99808695       2.61750012       0.00033966      -0.00130335       0.03821339       0.00000003       0.00000008       0.00013436       0.00000206      -0.00000172      -0.00000005      -0.01509358
Na      -0.07478709       5.00090253       4.91218921       0.00142029       0.00031230      -0.03052932       0.00000003       0.00000001       0.00014351       0.00000065       0.00000071       0.00000001      -0.01648486
Cl      -0.01564342       5.02565705       7.40112210      -0.00046003      -0.00382318       0.01849882       0.00000004       0.00000026       0.00013025      -0.00000387       0.00000194      -0.00000002      -0.01448179
Na       4.96611780      -0.02361840      -0.06376550       0.00295178       0.00390641      -0.14677472       0.00000015       0.00000028       0.00024479      -0.00000818      -0.00000603       0.00000021      -0.03233241
Cl       4.88123877      -0.14212172       2.48465048       0.00387176       0.01250055       0.03431885       0.00000019       0.00000229       0.00013168       0.00001142       0.00000186       0.00000062      -0.01504393
Na       4.97309430       0.22313668       4.75652324      -0.00255979      -0.01185957      -0.05368627       0.00000014       0.00000228       0.00010724       0.00001215       0.00000372       0.00000053      -0.01129739
Cl       5.01127265       0.03704445       7.63596339      -0.00426376      -0.00454739       0.16614214       0.00000010       0.00000028       0.00022035      -0.00000746      -0.00000416       0.00000012      -0.02858588
Na       5.05018572       4.91557863       0.00000098      -0.00352800       0.00686649      -0.06224867       0.00000016       0.00000051       0.00015727      -0.00000656       0.00000437      -0.00000028      -0.01872374
Cl       5.05423526       4.96864918       2.57710117      -0.00289604       0.00176551      -0.00117417       0.00000038       0.00000029       0.00008722       0.00000432      -0.00000394      -0.00000032      -0.00793427
Na       4.81319093       5.17311847       5.14676780       0.00655324      -0.00512337       0.02669264       0.00000069       0.00000044       0.00011640      -0.00000010       0.00000078      -0.00000055      -0.01248488
Cl       4.96643227       5.06113408       7.50479706      -0.00012920      -0.00350863       0.03673020       0.00000048       0.00000066       0.00018645      -0.00001098       0.00000909      -0.00000051      -0.02327435
