16
Lattice="9.700000000000001 0.0 0.0 0.0 9.700000000000001 0.0 0.0 0.0 9.700000000000001" Properties=species:S:1:pos:R:3:forces:R:3:stresses:R:6:energies:R:1 energy=-0.4061496557129424 stress="6.04921685006405e-06 -2.751228151363811e-06 4.4277676613518316e-05 -2.751228151363811e-06 1.459900189091885e-05 -5.653773033479072e-05 4.4277676613518316e-05 -5.653773033479072e-05 0.0031532059188988525" free_energy=-0.4061496557129424 pbc="T T T"
Na      -0.05001094      -0.00675202      -0.25634353      -0.01891016       0.02422292      -0.57348540       0.00000099       0.00000126       0.00058152      -0.00002664       0.00002261      -0.00000110      -0.08754636
Cl       0.19683250      -0.21521227       2.39899032      -0.00452697       0.00299671       0.01713174       0.00000047       0.00000026       0.00009117      -0.00000127       0.00000018      -0.00000034      -0.00855191
Na       0.06034577      -0.14943457       4.87304573       0.00150154      -0.00010887      -0.02799413       0.00000024       0.00000016       0.00007717       0.00000306      -0.00000433      -0.00000017      -0.00636204
Cl      -0.10908091       0.06617449       7.77506496       0.02193559      -0.02711075       0.58434780       0.00000076       0.00000116       0.00056751      -0.00002230       0.00001810      -0.00000094      -0.08535649
Na       0.00498473       4.86584895       0.06468700      -0.00145813       0.00528573      -0.02209853       0.00000005       0.00000045       0.00011364      -0.00000256      -0.00000061      -0.00000011      -0.01196194
Cl      -0.07153916       4.99770434       2.64100015       0.00028034      -0.00147700       0.04882445       0.00000005       0.00000012       0.00014285       0.00000240      -0.00000211      -0.00000007      -0.01641289
Na      -0.08974451       5.00108303       4.89462705       0.00179714       0.00036163      -0.03971109       0.00000005       0.00000001       0.00015373       0.00000080       0.00000077       0.00000002      -0.01806565
Cl      -0.01877210       5.03078845       7.38134651      -0.00061935      -0.00417036       0.01298517       0.00000005       0.00000034       0.00012452      -0.00000416       0.00000226      -0.00000003      -0.01361470
Na       4.95934136      -0.02834208      -0.07651860       0.00440600       0.00585073      -0.17377253       0.00000024       0.00000045       0.00026739      -0.00001077      -0.00000795       0.00000033      -0.03593714
Cl       4.85748653      -0.17054607       2.48158058       0.00497528       0.01643156       0.04161531       0.00000029       0.00000365       0.00013628       0.00001529       0.00000266       0.00000098      -0.01598143
Na       4.96771316       0.26776401       4.70782789      -0.00349208      -0.01551444      -0.06237729       0.00000023       0.00000362       0.00010977       0.00001638       0.00000478       0.00000086      -0.01191281
Cl       5.01352718       0.04445334       7.66315606      -0.00588921      -0.00676785       0.19453451       0.00000017       0.00000042       0.00024088      -0.00000968      -0.00000583       0.00000021      -0.03186852
Na       5.06022286       4.89869436       0.00000117      -0.00420787       0.00815354      -0.06288823       0.00000023       0.00000074       0.00015484      -0.00000785       0.00000521      -0.00000041      -0.01839481
Cl       5.06508231       4.96237902       2.59252141      -0.00324740       0.00196436      -0.00171624       0.00000051       0.00000039       0.00008325       0.00000489      -0.00000444      -0.00000043      -0.00736225
Na       4.77582912       5.20774216       5.17612136       0.00802833      -0.00624176       0.03278570       0.00000099       0.00000062       0.00011856      -0.00000068       0.00000166      -0.00000079      -0.01289409
Cl       4.95971872       5.07336089       7.50575647      -0.00057306      -0.00387614       0.03181876       0.00000072       0.00000097       0.00019014      -0.00001342       0.00001130      -0.00000076      -0.02392664
