16
Lattice="9.8 0.0 0.0 0.0 9.8 0.0 0.0 0.0 9.8" Properties=species:S:1:pos:R:3:forces:R:3:stresses:R:6:energies:R:1 energy=-0.26232781076146117 stress="2.117796413663703e-06 -9.257876435799085e-07 1.1986617308437935e-05 -9.257876435799085e-07 4.894796561401018e-06 -1.1710158474007102e-05 1.1986617308437935e-05 -1.1710158474007102e-05 0.0022057017317841316" free_energy=-0.26232781076146117 pbc="T T T"
Na      -0.03334063      -0.00450135      -0.17089569      -0.00260453       0.00392110      -0.18944470       0.00000025       0.00000025       0.00026498      -0.00000774       0.00000706      -0.00000025      -0.03686141
Cl       0.13122166      -0.14347485       2.43266021      -0.00329906       0.00224579       0.01204021       0.00000023       0.00000013       0.00009321      -0.00000117       0.00000054      -0.00000017      -0.00925416
Na       0.04023051      -0.09962305       4.91536382       0.00072052       0.00026127      -0.02179813       0.00000012       0.00000009       0.00008136       0.00000239      -0.00000310      -0.00000009      -0.00736185
Cl      -0.07272061       0.04411632       7.68337664       0.00518307      -0.00642815       0.19920262       0.00000014       0.00000022       0.00025314      -0.00000419       0.00000343      -0.00000017      -0.03496911
Na       0.00332315       4.91056596       0.04312467      -0.00098870       0.00334757      -0.01447989       0.00000002       0.00000018       0.00010763      -0.00000124      -0.00000051      -0.00000005      -0.01151106
Cl      -0.04769278       4.99846956       2.59400010       0.00034905      -0.00110065       0.02879926       0.00000002       0.00000005       0.00012319       0.00000165      -0.00000132      -0.00000003      -0.01395845
Na      -0.05982968       5.00072202       4.92975137       0.00108263       0.00025698      -0.02258203       0.00000002       0.00000000       0.00013035       0.00000049       0.00000060       0.00000001      -0.01508241
Cl      -0.01251473       5.02052564       7.42089768      -0.00044299      -0.00250389       0.00826266       0.00000002       0.00000013       0.00011479      -0.00000239       0.00000141      -0.00000001      -0.01263502
Na       4.97289424      -0.01889472      -0.05101240       0.00099286       0.00128486      -0.07914265       0.00000007       0.00000013       0.00017637      -0.00000469      -0.00000344       0.00000010      -0.02246128
Cl       4.90499102      -0.11369738       2.48772038       0.00288734       0.00908285       0.02699038       0.00000011       0.00000127       0.00012289       0.00000783       0.00000116       0.00000035      -0.01411719
Na       4.97847544       0.17850934       4.80521859      -0.00176875      -0.00870656      -0.04439051       0.00000008       0.00000128       0.00010186       0.00000821       0.00000269       0.00000029      -0.01079614
Cl       5.00901812       0.02963556       7.60877071      -0.00211145      -0.00166115       0.09654278       0.00000004       0.00000014       0.00015534      -0.00000431      -0.00000190       0.00000003      -0.01914022
Na       5.04014858       4.93246290       0.00000078      -0.00198348       0.00406437      -0.03651512       0.00000007       0.00000023       0.00012940      -0.00000355       0.00000253      -0.00000012      -0.01498305
Cl       5.04338821       4.97491934       2.56168094      -0.00246994       0.00151489      -0.00069916       0.00000025       0.00000019       0.00008845       0.00000354      -0.00000324      -0.00000021      -0.00851310
Na       4.85055275       5.13849477       5.11741424       0.00515111      -0.00404960       0.02081755       0.00000043       0.00000027       0.00011089       0.00000027       0.00000015      -0.00000034      -0.01210671
Cl       4.97314581       5.04890726       7.50383765      -0.00069768      -0.00152966       0.01639673       0.00000025       0.00000031       0.00015185      -0.00000682       0.00000592      -0.00000025      -0.01857666
