16
Lattice="9.8 0.0 0.0 0.0 9.8 0.0 0.0 0.0 9.8" Properties=species:S:1:pos:R:3:forces:R:3:stresses:R:6:energies:R:1 energy=-0.2893309700794757 stress="3.4056495870716883e-06 -1.3682176131716247e-06 1.9869411335198483e-05 -1.3682176131716247e-06 8.152187596542512e-06 -1.8150528830164904e-05 1.9869411335198483e-05 -1.8150528830164904e-05 0.0023659871112004616" free_energy=-0.2893309700794757 pbc="T T T"
Na      -0.04167578      -0.00562668      -0.21361961      -0.00582752       0.00799807      -0.27124748       0.00000043       0.00000047       0.00033037      -0.00001204       0.00001066      -0.00000044      -0.04767980
Cl       0.16402708      -0.17934356       2.41582526      -0.00394165       0.00264651       0.01466910       0.00000034       0.00000019       0.00009077      -0.00000124       0.00000040      -0.00000024      -0.00889493
Na       0.05028814      -0.12452881       4.89420478       0.00109339       0.00009630      -0.02517331       0.00000017       0.00000012       0.00007782       0.00000270      -0.00000366      -0.00000013      -0.00681813
Cl      -0.09090076       0.05514540       7.72922080       0.00867578      -0.01074088       0.28175169       0.00000027       0.00000041       0.00031743      -0.00000810       0.00000659      -0.00000033      -0.04560300
Na       0.00415394       4.88820746       0.05390583      -0.00116155       0.00385353      -0.01153031       0.00000003       0.00000026       0.00010145      -0.00000132      -0.00000064      -0.00000007      -0.01054606
Cl      -0.05961597       4.99808695       2.61750012       0.00033966      -0.00130335       0.03821339       0.00000003       0.00000008       0.00013028       0.00000200      -0.00000167      -0.00000005      -0.01509358
Na      -0.07478709       5.00090253       4.91218921       0.00142029       0.00031230      -0.03052932       0.00000003       0.00000001       0.00013916       0.00000063       0.00000069       0.00000001      -0.01648486
Cl      -0.01564342       5.02565705       7.40112210      -0.00059841      -0.00286247       0.00384624       0.00000003       0.00000019       0.00011032      -0.00000268       0.00000172      -0.00000001      -0.01193734
Na       4.96611780      -0.02361840      -0.06376550       0.00165932       0.00217006      -0.09568067       0.00000012       0.00000022       0.00018995      -0.00000629      -0.00000462       0.00000016      -0.02466607
Cl       4.88123877      -0.14212172       2.48465048       0.00387176       0.01250055       0.03431885       0.00000018       0.00000222       0.00012769       0.00001108       0.00000180       0.00000060      -0.01504393
Na       4.97309430       0.22313668       4.75652324      -0.00255979      -0.01185957      -0.05368627       0.00000014       0.00000221       0.00010399       0.00001178       0.00000361       0.00000051      -0.01129739
Cl       5.01127265       0.03704445       7.63596339      -0.00297129      -0.00281104       0.11504809       0.00000007       0.00000021       0.00016625      -0.00000559      -0.00000281       0.00000007      -0.02091954
Na       5.05018572       4.91557863       0.00000098      -0.00247095       0.00502943      -0.03755226       0.00000011       0.00000036       0.00012737      -0.00000445       0.00000314      -0.00000019      -0.01468828
Cl       5.05423526       4.96864918       2.57710117      -0.00289604       0.00176551      -0.00117417       0.00000036       0.00000028       0.00008458       0.00000418      -0.00000382      -0.00000031      -0.00793427
Na       4.81319093       5.17311847       5.14676780       0.00655324      -0.00512337       0.02669264       0.00000067       0.00000042       0.00011288      -0.00000010       0.00000076      -0.00000053      -0.01248488
Cl       4.96643227       5.06113408       7.50479706      -0.00118626      -0.00167157       0.01203379       0.00000041       0.00000050       0.00015567      -0.00000873       0.00000772      -0.00000042      -0.01923889
