16
Lattice="9.9 0.0 0.0 0.0 9.9 0.0 0.0 0.0 9.9" Properties=species:S:1:pos:R:3:forces:R:3:stresses:R:6:energies:R:1 energy=-0.20984995730377426 stress="1.085474265835942e-06 -4.924863291923525e-07 4.807351628681238e-06 -4.924863291923525e-07 2.3730328362357162e-06 -2.038323244265845e-06 4.807351628681238e-06 -2.038323244265845e-06 0.0018262197846230072" free_energy=-0.20984995730377426 pbc="T T T"
Na      -0.02500547      -0.00337601      -0.12817177      -0.00012233       0.00073071      -0.08519232       0.00000012       0.00000010       0.00016906      -0.00000385       0.00000374      -0.00000011      -0.02214182
Cl       0.09841625      -0.10760614       2.44949516      -0.00259153       0.00178776       0.00924970       0.00000013       0.00000008       0.00009286      -0.00000098       0.00000056      -0.00000010      -0.00962908
Na       0.03017289      -0.07471729       4.93652287       0.00039871       0.00036662      -0.01775284       0.00000007       0.00000006       0.00008299       0.00000193      -0.00000240      -0.00000006      -0.00801141
Cl      -0.05454046       0.03308724       7.63753248       0.00231515      -0.00288509       0.09369547       0.00000006       0.00000009       0.00015919      -0.00000093       0.00000079      -0.00000007      -0.02052416
Na       0.00249236       4.93292447       0.03234350      -0.00071669       0.00222372      -0.00476221       0.00000001       0.00000009       0.00009677      -0.00000050      -0.00000045      -0.00000003      -0.01024787
Cl      -0.03576958       4.99885217       2.57050007       0.00031514      -0.00086911       0.02040726       0.00000001       0.00000003       0.00011358       0.00000124      -0.00000095      -0.00000002      -0.01298407
Na      -0.04487226       5.00054152       4.94731353       0.00077698       0.00019706      -0.01569328       0.00000001       0.00000000       0.00011883       0.00000035       0.00000047       0.00000000      -0.01383504
Cl      -0.00938605       5.01539423       7.44067326      -0.00037543      -0.00155167       0.00004823       0.00000001       0.00000006       0.00010202      -0.00000138       0.00000097      -0.00000000      -0.01109883
Na       4.97967068      -0.01417104      -0.03825930       0.00015457       0.00016965      -0.03789421       0.00000003       0.00000006       0.00013329      -0.00000269      -0.00000197       0.00000004      -0.01622066
Cl       4.92874326      -0.08527303       2.49079029       0.00201811       0.00616378       0.01978577       0.00000006       0.00000062       0.00011439       0.00000497       0.00000064       0.00000017      -0.01322024
Na       4.98385658       0.13388201       4.85391395      -0.00111952      -0.00602099      -0.03449218       0.00000004       0.00000063       0.00009739       0.00000506       0.00000183       0.00000014      -0.01045226
Cl       5.00676359       0.02222667       7.58157803      -0.00105316      -0.00031244       0.05260062       0.00000001       0.00000007       0.00011629      -0.00000260      -0.00000078       0.00000001      -0.01345268
Na       5.03011143       4.94934718       0.00000059      -0.00105418       0.00231803      -0.01753837       0.00000003       0.00000009       0.00010906      -0.00000177       0.00000139      -0.00000005      -0.01225932
Cl       5.03254115       4.98118951       2.54626070      -0.00196696       0.00121166      -0.00031636       0.00000014       0.00000011       0.00008954       0.00000271      -0.00000249      -0.00000012      -0.00909591
Na       4.88791456       5.10387108       5.08806068       0.00380676      -0.00300913       0.01518634       0.00000023       0.00000015       0.00010572       0.00000045      -0.00000020      -0.00000019      -0.01175660
Cl       4.97985936       5.03668045       7.50287824      -0.00078562      -0.00052057       0.00266839       0.00000012       0.00000013       0.00012524      -0.00000404       0.00000367      -0.00000011      -0.01492001
