16
Lattice="9.9 0.0 0.0 0.0 9.9 0.0 0.0 0.0 9.9" Properties=species:S:1:pos:R:3:forces:R:3:stresses:R:6:energies:R:1 energy=-0.22390254582607771 stress="1.9332982756291443e-06 -7.762671884095574e-07 8.802465851257253e-06 -7.762671884095574e-07 4.431817060487518e-06 -3.2111669164889067e-06 8.802465851257253e-06 -3.2111669164889067e-06 0.0019079384355462237" free_energy=-0.22390254582607771 pbc="T T T"
Na      -0.03334063      -0.00450135      -0.17089569      -0.00117716       0.00215890      -0.12650247       0.00000021       0.00000020       0.00020192      -0.00000594       0.00000557      -0.00000020      -0.02763168
Cl       0.13122166      -0.14347485       2.43266021      -0.00329906       0.00224579       0.01204021       0.00000022       0.00000013       0.00009041      -0.00000113       0.00000052      -0.00000016      -0.00925416
Na       0.04023051      -0.09962305       4.91536382       0.00072052       0.00026127      -0.02179813       0.00000011       0.00000009       0.00007892       0.00000232      -0.00000300      -0.00000009      -0.00736185
Cl      -0.07272061       0.04411632       7.68337664       0.00375570      -0.00466596       0.13626040       0.00000011       0.00000016       0.00019043      -0.00000249       0.00000205      -0.00000013      -0.02573937
Na       0.00332315       4.91056596       0.04312467      -0.00090226       0.00274740      -0.00270198       0.00000002       0.00000014       0.00009158      -0.00000054      -0.00000059      -0.00000004      -0.00941271
Cl      -0.04769278       4.99846956       2.59400010       0.00034905      -0.00110065       0.02879926       0.00000002       0.00000005       0.00011949       0.00000160      -0.00000128      -0.00000003      -0.01395845
Na      -0.05982968       5.00072202       4.92975137       0.00108263       0.00025698      -0.02258203       0.00000002       0.00000000       0.00012644       0.00000048       0.00000058       0.00000001      -0.01508241
Cl      -0.01251473       5.02052564       7.42089768      -0.00052943      -0.00190372      -0.00351525       0.00000002       0.00000009       0.00009852      -0.00000165       0.00000127      -0.00000001      -0.01053667
Na       4.97289424      -0.01889472      -0.05101240       0.00041170       0.00050411      -0.04842367       0.00000006       0.00000011       0.00014148      -0.00000378      -0.00000276       0.00000008      -0.01757987
Cl       4.90499102      -0.11369738       2.48772038       0.00288734       0.00908285       0.02699038       0.00000011       0.00000124       0.00011920       0.00000760       0.00000112       0.00000034      -0.01411719
Na       4.97847544       0.17850934       4.80521859      -0.00176875      -0.00870656      -0.04439051       0.00000008       0.00000124       0.00009881       0.00000797       0.00000261       0.00000028      -0.01079614
Cl       5.00901812       0.02963556       7.60877071      -0.00153029      -0.00088040       0.06582381       0.00000003       0.00000012       0.00012109      -0.00000341      -0.00000128       0.00000002      -0.01425882
Na       5.04014858       4.93246290       0.00000078      -0.00140436       0.00305790      -0.01882672       0.00000005       0.00000016       0.00010726      -0.00000238       0.00000184      -0.00000009      -0.01197991
Cl       5.04338821       4.97491934       2.56168094      -0.00246994       0.00151489      -0.00069916       0.00000024       0.00000019       0.00008579       0.00000343      -0.00000314      -0.00000020      -0.00851310
Na       4.85055275       5.13849477       5.11741424       0.00515111      -0.00404960       0.02081755       0.00000041       0.00000027       0.00010756       0.00000027       0.00000015      -0.00000033      -0.01210671
Cl       4.97314581       5.04890726       7.50383765      -0.00127681      -0.00052320      -0.00129168       0.00000022       0.00000024       0.00012903      -0.00000555       0.00000513      -0.00000021      -0.01557352
