16
Lattice="9.9 0.0 0.0 0.0 9.9 0.0 0.0 0.0 9.9" Properties=species:S:1:pos:R:3:forces:R:3:stresses:R:6:energies:R:1 energy=-0.26992057663230085 stress="4.555102313650507e-06 -1.4786385060511068e-06 2.3285998908319357e-05 -1.4786385060511068e-06 1.134055590028411e-05 -1.0746526662741191e-05 2.3285998908319357e-05 -1.0746526662741191e-05 0.002172603678327792" free_energy=-0.26992057663230085 pbc="T T T"
Na      -0.05001094      -0.00675202      -0.25634353      -0.00675432       0.00921557      -0.26059035       0.00000056       0.00000062       0.00030729      -0.00001330       0.00001174      -0.00000058      -0.04550775
Cl       0.19683250      -0.21521227       2.39899032      -0.00452697       0.00299671       0.01713174       0.00000045       0.00000024       0.00008576      -0.00000120       0.00000017      -0.00000032      -0.00855191
Na       0.06034577      -0.14943457       4.87304573       0.00150154      -0.00010887      -0.02799413       0.00000023       0.00000015       0.00007259       0.00000288      -0.00000407      -0.00000016      -0.00636204
Cl      -0.10908091       0.06617449       7.77506496       0.00977975      -0.01210341       0.27145274       0.00000034       0.00000053       0.00029412      -0.00000922       0.00000751      -0.00000042      -0.04331788
Na       0.00498473       4.86584895       0.06468700      -0.00120765       0.00354670       0.00066590       0.00000004       0.00000027       0.00008208      -0.00000048      -0.00000086      -0.00000009      -0.00788947
Cl      -0.07153916       4.99770434       2.64100015       0.00028034      -0.00147700       0.04882445       0.00000004       0.00000011       0.00013436       0.00000226      -0.00000198      -0.00000006      -0.01641289
Na      -0.08974451       5.00108303       4.89462705       0.00179714       0.00036163      -0.03971109       0.00000005       0.00000001       0.00014460       0.00000076       0.00000072       0.00000002      -0.01806565
Cl      -0.01877210       5.03078845       7.38134651      -0.00086983      -0.00243133      -0.00977926       0.00000005       0.00000017       0.00009231      -0.00000198       0.00000185      -0.00000001      -0.00954223
Na       4.95934136      -0.02834208      -0.07651860       0.00136946       0.00177132      -0.07376714       0.00000014       0.00000027       0.00016146      -0.00000638      -0.00000468       0.00000020      -0.02091348
Cl       4.85748653      -0.17054607       2.48158058       0.00497528       0.01643156       0.04161531       0.00000028       0.00000343       0.00012819       0.00001438       0.00000250       0.00000093      -0.01598143
Na       4.96771316       0.26776401       4.70782789      -0.00349208      -0.01551444      -0.06237729       0.00000021       0.00000340       0.00010325       0.00001540       0.00000450       0.00000081      -0.01191281
Cl       5.01352718       0.04445334       7.66315606      -0.00285267      -0.00268843       0.09452912       0.00000008       0.00000024       0.00013652      -0.00000536      -0.00000269       0.00000008      -0.01684486
Na       5.06022286       4.89869436       0.00000117      -0.00209241       0.00447708      -0.02097931       0.00000011       0.00000036       0.00010353      -0.00000362       0.00000273      -0.00000019      -0.01141500
Cl       5.06508231       4.96237902       2.59252141      -0.00324740       0.00196436      -0.00171624       0.00000048       0.00000037       0.00007831       0.00000460      -0.00000417      -0.00000040      -0.00736225
Na       4.77582912       5.20774216       5.17612136       0.00802833      -0.00624176       0.03278570       0.00000093       0.00000059       0.00011151      -0.00000064       0.00000156      -0.00000074      -0.01289409
Cl       4.95971872       5.07336089       7.50575647      -0.00268852      -0.00019968      -0.01009015       0.00000057       0.00000058       0.00013673      -0.00000885       0.00000846      -0.00000053      -0.01694684
