16
Lattice="10.0 0.0 0.0 0.0 10.0 0.0 0.0 0.0 10.0" Properties=species:S:1:pos:R:3:forces:R:3:stresses:R:6:energies:R:1 energy=-0.17339919026817963 stress="0.0 0.0 0.0 0.0 0.0 0.0 0.0 0.0 0.0015599790981119994" free_energy=-0.17339919026817963 pbc="T T T"
Na       0.00000000       0.00000000       0.00000000       0.00000000       0.00000000       0.00000000       0.00000000       0.00000000       0.00009750       0.00000000       0.00000000       0.00000000      -0.01083745
Cl       0.00000000       0.00000000       2.50000000       0.00000000       0.00000000       0.00000000       0.00000000       0.00000000       0.00009750       0.00000000       0.00000000       0.00000000      -0.01083745
Na       0.00000000       0.00000000       5.00000000       0.00000000       0.00000000       0.00000000       0.00000000       0.00000000       0.00009750       0.00000000       0.00000000       0.00000000      -0.01083745
Cl       0.00000000       0.00000000       7.50000000       0.00000000       0.00000000       0.00000000       0.00000000       0.00000000       0.00009750       0.00000000       0.00000000       0.00000000      -0.01083745
Na       0.00000000       5.00000000       0.00000000       0.00000000       0.00000000       0.00000000       0.00000000       0.00000000       0.00009750       0.00000000       0.00000000       0.00000000      -0.01083745
Cl       0.00000000       5.00000000       2.50000000       0.00000000       0.00000000       0.00000000       0.00000000       0.00000000       0.00009750       0.00000000       0.00000000       0.00000000      -0.01083745
Na       0.00000000       5.00000000       5.00000000       0.00000000       0.00000000       0.00000000       0.00000000       0.00000000       0.00009750       0.00000000       0.00000000       0.00000000      -0.01083745
Cl       0.00000000       5.00000000       7.50000000       0.00000000       0.00000000       0.00000000       0.00000000       0.00000000       0.00009750       0.00000000       0.00000000       0.00000000      -0.01083745
Na       5.00000000       0.00000000       0.00000000       0.00000000       0.00000000       0.00000000       0.00000000       0.00000000       0.00009750       0.00000000       0.00000000       0.00000000      -0.01083745
Cl       5.00000000       0.00000000       2.50000000       0.00000000       0.00000000       0.00000000       0.00000000       0.00000000       0.00009750       0.00000000       0.00000000       0.00000000      -0.01083745
Na       5.00000000       0.00000000       5.00000000       0.00000000       0.00000000       0.00000000       0.00000000       0.00000000       0.00009750       0.00000000       0.00000000       0.00000000      -0.01083745
Cl       5.00000000       0.00000000       7.50000000       0.00000000       0.00000000       0.00000000       0.00000000       0.00000000       0.00009750       0.00000000       0.00000000       0.00000000      -0.01083745
Na       5.00000000       5.00000000       0.00000000       0.00000000       0.00000000       0.00000000       0.00000000       0.00000000       0.00009750       0.00000000       0.00000000       0.00000000      -0.01083745
Cl       5.00000000       5.00000000       2.50000000       0.00000000       0.00000000       0.00000000       0.00000000       0.00000000       0.00009750       0.00000000       0.00000000       0.00000000      -0.01083745
Na       5.00000000       5.00000000       5.00000000       0.00000000       0.00000000       0.00000000       0.00000000       0.00000000       0.00009750       0.00000000       0.00000000       0.00000000      -0.01083745
Cl       5.00000000       5.00000000       7.50000000       0.00000000       0.00000000       0.00000000       0.00000000       0.00000000       0.00009750       0.00000000       0.00000000       0.00000000      -0.01083745
