16
Lattice="10.0 0.0 0.0 0.0 10.0 0.0 0.0 0.0 10.0" Properties=species:S:1:pos:R:3:forces:R:3:stresses:R:6:energies:R:1 energy=-0.17468181075567837 stress="1.1718320079126592e-07 -6.447770076474592e-08 3.528133018352269e-07 -6.447770076474592e-08 2.294278622684147e-07 2.546083088018868e-07 3.528133018352269e-07 2.546083088018868e-07 0.0015672000473797862" free_energy=-0.17468181075567837 pbc="T T T"
Na      -0.00833516      -0.00112534      -0.04272392       0.00038573      -0.00024597      -0.01385419       0.00000001       0.00000001       0.00010616      -0.00000093       0.00000099      -0.00000001      -0.01229983
Cl       0.03280542      -0.03586871       2.48316505      -0.00094987       0.00067178       0.00321706       0.00000002       0.00000001       0.00009500      -0.00000041       0.00000030      -0.00000001      -0.01042220
Na       0.01005763      -0.02490576       4.97884096       0.00000315       0.00028033      -0.00704896       0.00000001       0.00000001       0.00009083       0.00000080      -0.00000091      -0.00000001      -0.00972019
Cl      -0.01818015       0.01102908       7.54584416       0.00056099      -0.00070613       0.01768609       0.00000001       0.00000001       0.00010199       0.00000028      -0.00000021      -0.00000001      -0.01159782
Na       0.00083079       4.97764149       0.01078117      -0.00024707       0.00071829       0.00180876       0.00000000       0.00000001       0.00009261      -0.00000008      -0.00000017      -0.00000000      -0.01001728
Cl      -0.01192319       4.99961739       2.52350002       0.00013702      -0.00031911       0.00612262       0.00000000       0.00000000       0.00010108       0.00000043      -0.00000031      -0.00000000      -0.01143976
Na      -0.01495742       5.00018051       4.98243784       0.00023980       0.00006775      -0.00451887       0.00000000       0.00000000       0.00010280       0.00000011       0.00000017       0.00000000      -0.01172851
Cl      -0.00312868       5.00513141       7.48022442      -0.00012976      -0.00046693      -0.00341251       0.00000000       0.00000001       0.00009433      -0.00000040       0.00000030      -0.00000000      -0.01030603
Na       4.99322356      -0.00472368      -0.01275310      -0.00009657      -0.00014326      -0.00566596       0.00000000       0.00000001       0.00010126      -0.00000071      -0.00000052       0.00000000      -0.01147099
Cl       4.97624775      -0.02842434       2.49693010       0.00058719       0.00167265       0.00621289       0.00000001       0.00000005       0.00010181       0.00000116       0.00000008       0.00000002      -0.01157130
Na       4.99461886       0.04462734       4.95130465      -0.00023671      -0.00177161      -0.01250880       0.00000000       0.00000006       0.00009495       0.00000102       0.00000053       0.00000001      -0.01042099
Cl       5.00225453       0.00740889       7.52719268      -0.00025392       0.00024221       0.01196186       0.00000000       0.00000001       0.00009441      -0.00000085      -0.00000008      -0.00000000      -0.01032068
Na       5.01003714       4.98311573       0.00000020      -0.00024989       0.00061285      -0.00171064       0.00000000       0.00000001       0.00009582      -0.00000037       0.00000034      -0.00000000      -0.01055700
Cl       5.01084705       4.99372984       2.51542023      -0.00072976       0.00045116       0.00006237       0.00000002       0.00000001       0.00009404       0.00000096      -0.00000089      -0.00000001      -0.01026128
Na       4.96263819       5.03462369       5.02935356       0.00124079      -0.00099106       0.00475427       0.00000003       0.00000002       0.00009917       0.00000029      -0.00000026      -0.00000002      -0.01112610
Cl       4.99328645       5.01222682       7.50095941      -0.00026114      -0.00007295      -0.00310600       0.00000001       0.00000001       0.00010095      -0.00000104       0.00000097      -0.00000001      -0.01142182
