16
Lattice="10.0 0.0 0.0 0.0 10.0 0.0 0.0 0.0 10.0" Properties=species:S:1:pos:R:3:forces:R:3:stresses:R:6:energies:R:1 energy=-0.18553522619200097 stress="1.016276695361914e-06 -4.388035400247899e-07 3.4942038640741056e-06 -4.388035400247899e-07 2.19347386821448e-06 1.7581891668785475e-06 3.4942038640741056e-06 1.7581891668785475e-06 0.0016282685906064247" free_energy=-0.18553522619200097 pbc="T T T"
Na      -0.02500547      -0.00337601      -0.12817177       0.00036502       0.00012903      -0.05377009       0.00000011       0.00000009       0.00013474      -0.00000316       0.00000317      -0.00000010      -0.01716250
Cl       0.09841625      -0.10760614       2.44949516      -0.00259153       0.00178776       0.00924970       0.00000013       0.00000007       0.00009010      -0.00000095       0.00000054      -0.00000010      -0.00962908
Na       0.03017289      -0.07471729       4.93652287       0.00039871       0.00036662      -0.01775284       0.00000007       0.00000006       0.00008053       0.00000188      -0.00000233      -0.00000006      -0.00801141
Cl      -0.05454046       0.03308724       7.63753248       0.00182779      -0.00228341       0.06227324       0.00000005       0.00000007       0.00012517      -0.00000033       0.00000030      -0.00000006      -0.01554483
Na       0.00249236       4.93292447       0.03234350      -0.00066582       0.00187055       0.00474181       0.00000001       0.00000007       0.00008356      -0.00000009      -0.00000049      -0.00000002      -0.00851088
Cl      -0.03576958       4.99885217       2.57050007       0.00031514      -0.00086911       0.02040726       0.00000001       0.00000003       0.00011020       0.00000120      -0.00000092      -0.00000002      -0.01298407
Na      -0.04487226       5.00054152       4.94731353       0.00077698       0.00019706      -0.01569328       0.00000001       0.00000000       0.00011530       0.00000034       0.00000045       0.00000000      -0.01383504
Cl      -0.00938605       5.01539423       7.44067326      -0.00042630      -0.00119850      -0.00945579       0.00000001       0.00000004       0.00008866      -0.00000095       0.00000088      -0.00000000      -0.00936185
Na       4.97967068      -0.01417104      -0.03825930      -0.00009786      -0.00016948      -0.01895005       0.00000003       0.00000005       0.00011047      -0.00000227      -0.00000165       0.00000004      -0.01303517
Cl       4.92874326      -0.08527303       2.49079029       0.00201811       0.00616378       0.01978577       0.00000005       0.00000060       0.00011099       0.00000482       0.00000062       0.00000017      -0.01322024
Na       4.98385658       0.13388201       4.85391395      -0.00111952      -0.00602099      -0.03449218       0.00000004       0.00000061       0.00009449       0.00000491       0.00000177       0.00000013      -0.01045226
Cl       5.00676359       0.02222667       7.58157803      -0.00080073       0.00002670       0.03365646       0.00000001       0.00000006       0.00009397      -0.00000218      -0.00000050       0.00000000      -0.01026719
Na       5.03011143       4.94934718       0.00000059      -0.00075329       0.00179512      -0.00474946       0.00000002       0.00000007       0.00009245      -0.00000116       0.00000102      -0.00000003      -0.01000375
Cl       5.03254115       4.98118951       2.54626070      -0.00196696       0.00121166      -0.00031636       0.00000014       0.00000011       0.00008688       0.00000263      -0.00000242      -0.00000012      -0.00909591
Na       4.88791456       5.10387108       5.08806068       0.00380676      -0.00300913       0.01518634       0.00000023       0.00000015       0.00010258       0.00000043      -0.00000020      -0.00000018      -0.01175660
Cl       4.97985936       5.03668045       7.50287824      -0.00108651       0.00000235      -0.01012052       0.00000011       0.00000011       0.00010815      -0.00000336       0.00000324      -0.00000010      -0.01266445
