16
Lattice="10.0 0.0 0.0 0.0 10.0 0.0 0.0 0.0 10.0" Properties=species:S:1:pos:R:3:forces:R:3:stresses:R:6:energies:R:1 energy=-0.19582605578729112 stress="1.7972312663780474e-06 -6.736224596617863e-07 6.630618121620373e-06 -6.736224596617863e-07 4.091362015280814e-06 2.468658017534875e-06 6.630618121620373e-06 2.468658017534875e-06 0.001686032121866816" free_energy=-0.19582605578729112 pbc="T T T"
Na      -0.03334063      -0.00450135      -0.17089569      -0.00024436       0.00100729      -0.08325891       0.00000019       0.00000017       0.00015729      -0.00000471       0.00000456      -0.00000018      -0.02102292
Cl       0.13122166      -0.14347485       2.43266021      -0.00329906       0.00224579       0.01204021       0.00000022       0.00000012       0.00008773      -0.00000110       0.00000050      -0.00000016      -0.00925416
Na       0.04023051      -0.09962305       4.91536382       0.00072052       0.00026127      -0.02179813       0.00000011       0.00000009       0.00007658       0.00000225      -0.00000291      -0.00000009      -0.00736185
Cl      -0.07272061       0.04411632       7.68337664       0.00282290      -0.00351434       0.09301683       0.00000008       0.00000013       0.00014613      -0.00000136       0.00000114      -0.00000011      -0.01913062
Na       0.00332315       4.91056596       0.04312467      -0.00084154       0.00232585       0.00590812       0.00000002       0.00000012       0.00007939      -0.00000005      -0.00000064      -0.00000004      -0.00781945
Cl      -0.04769278       4.99846956       2.59400010       0.00034905      -0.00110065       0.02879926       0.00000002       0.00000005       0.00011595       0.00000155      -0.00000124      -0.00000003      -0.01395845
Na      -0.05982968       5.00072202       4.92975137       0.00108263       0.00025698      -0.02258203       0.00000002       0.00000000       0.00012268       0.00000047       0.00000056       0.00000001      -0.01508241
Cl      -0.01251473       5.02052564       7.42089768      -0.00059015      -0.00148217      -0.01212535       0.00000002       0.00000007       0.00008613      -0.00000113       0.00000116      -0.00000000      -0.00894341
Na       4.97289424      -0.01889472      -0.05101240       0.00001994      -0.00002220      -0.02675714       0.00000005       0.00000009       0.00011609      -0.00000314      -0.00000229       0.00000007      -0.01399353
Cl       4.90499102      -0.11369738       2.48772038       0.00288734       0.00908285       0.02699038       0.00000010       0.00000120       0.00011566       0.00000737       0.00000109       0.00000033      -0.01411719
Na       4.97847544       0.17850934       4.80521859      -0.00176875      -0.00870656      -0.04439051       0.00000007       0.00000121       0.00009587       0.00000773       0.00000253       0.00000027      -0.01079614
Cl       5.00901812       0.02963556       7.60877071      -0.00113853      -0.00035409       0.04415727       0.00000002       0.00000010       0.00009630      -0.00000278      -0.00000085       0.00000001      -0.01067247
Na       5.04014858       4.93246290       0.00000078      -0.00100439       0.00236280      -0.00608413       0.00000004       0.00000012       0.00009075      -0.00000157       0.00000136      -0.00000006      -0.00973002
Cl       5.04338821       4.97491934       2.56168094      -0.00246994       0.00151489      -0.00069916       0.00000023       0.00000018       0.00008325       0.00000333      -0.00000305      -0.00000020      -0.00851310
Na       4.85055275       5.13849477       5.11741424       0.00515111      -0.00404960       0.02081755       0.00000040       0.00000026       0.00010437       0.00000026       0.00000015      -0.00000032      -0.01210671
Cl       4.97314581       5.04890726       7.50383765      -0.00167678       0.00017191      -0.01403426       0.00000020       0.00000019       0.00011188      -0.00000464       0.00000455      -0.00000018      -0.01332363
