16
Lattice="10.0 0.0 0.0 0.0 10.0 0.0 0.0 0.0 10.0" Properties=species:S:1:pos:R:3:forces:R:3:stresses:R:6:energies:R:1 energy=-0.21019581602808302 stress="2.823154794058072e-06 -9.116811791926212e-07 1.1207557486890616e-05 -9.116811791926212e-07 6.767790002326597e-06 2.5324835342286753e-06 1.1207557486890616e-05 2.5324835342286753e-06 0.001766422781488672" free_energy=-0.21019581602808302 pbc="T T T"
Na      -0.04167578      -0.00562668      -0.21361961      -0.00150600       0.00266283      -0.12269394       0.00000030       0.00000028       0.00018791      -0.00000682       0.00000638      -0.00000029      -0.02629788
Cl       0.16402708      -0.17934356       2.41582526      -0.00394165       0.00264651       0.01466910       0.00000032       0.00000018       0.00008543      -0.00000116       0.00000038      -0.00000023      -0.00889493
Na       0.05028814      -0.12452881       4.89420478       0.00109339       0.00009630      -0.02517331       0.00000016       0.00000011       0.00007325       0.00000255      -0.00000345      -0.00000012      -0.00681813
Cl      -0.09090076       0.05514540       7.72922080       0.00435426      -0.00540563       0.13319815       0.00000014       0.00000022       0.00017572      -0.00000311       0.00000255      -0.00000018      -0.02422108
Na       0.00415394       4.88820746       0.05390583      -0.00099725       0.00271287       0.00689988       0.00000003       0.00000017       0.00007543       0.00000003      -0.00000078      -0.00000006      -0.00716596
Cl      -0.05961597       4.99808695       2.61750012       0.00033966      -0.00130335       0.03821339       0.00000003       0.00000008       0.00012262       0.00000188      -0.00000157      -0.00000004      -0.01509358
Na      -0.07478709       5.00090253       4.91218921       0.00142029       0.00031230      -0.03052932       0.00000003       0.00000001       0.00013097       0.00000060       0.00000065       0.00000001      -0.01648486
Cl      -0.01564342       5.02565705       7.40112210      -0.00076270      -0.00172181      -0.01458395       0.00000003       0.00000010       0.00008379      -0.00000126       0.00000144      -0.00000000      -0.00855724
Na       4.96611780      -0.02361840      -0.06376550       0.00023599       0.00025791      -0.03549329       0.00000008       0.00000015       0.00012250      -0.00000409      -0.00000299       0.00000011      -0.01509112
Cl       4.88123877      -0.14212172       2.48465048       0.00387176       0.01250055       0.03431885       0.00000017       0.00000209       0.00012018       0.00001042       0.00000169       0.00000057      -0.01504393
Na       4.97309430       0.22313668       4.75652324      -0.00255979      -0.01185957      -0.05368627       0.00000013       0.00000208       0.00009787       0.00001109       0.00000340       0.00000048      -0.01129739
Cl       5.01127265       0.03704445       7.63596339      -0.00154797      -0.00089889       0.05486071       0.00000003       0.00000014       0.00010019      -0.00000343      -0.00000129       0.00000002      -0.01134458
Na       5.05018572       4.91557863       0.00000098      -0.00125349       0.00291360      -0.00730023       0.00000005       0.00000018       0.00008905      -0.00000199       0.00000169      -0.00000009      -0.00945769
Cl       5.05423526       4.96864918       2.57710117      -0.00289604       0.00176551      -0.00117417       0.00000034       0.00000026       0.00007960       0.00000394      -0.00000359      -0.00000029      -0.00793427
Na       4.81319093       5.17311847       5.14676780       0.00655324      -0.00512337       0.02669264       0.00000063       0.00000040       0.00010624      -0.00000009       0.00000071      -0.00000050      -0.01248488
Cl       4.96643227       5.06113408       7.50479706      -0.00240372       0.00044426      -0.01821824       0.00000034       0.00000032       0.00011568      -0.00000602       0.00000600      -0.00000030      -0.01400830
