16
Lattice="10.1 0.0 0.0 0.0 10.1 0.0 0.0 0.0 10.1" Properties=species:S:1:pos:R:3:forces:R:3:stresses:R:6:energies:R:1 energy=-0.16739317565692743 stress="9.617234754992753e-07 -3.996844164001616e-07 2.5791294824531597e-06 -3.996844164001616e-07 2.0553236504606174e-06 4.321125308469164e-06 2.5791294824531597e-06 4.321125308469164e-06 0.0014759552571025612" free_energy=-0.16739317565692743 pbc="T T T"
Na      -0.02500547      -0.00337601      -0.12817177       0.00069321      -0.00027614      -0.03162779       0.00000010       0.00000008       0.00010981      -0.00000268       0.00000276      -0.00000009      -0.01350730
Cl       0.09841625      -0.10760614       2.44949516      -0.00259153       0.00178776       0.00924970       0.00000013       0.00000007       0.00008745      -0.00000093       0.00000052      -0.00000009      -0.00962908
Na       0.03017289      -0.07471729       4.93652287       0.00039871       0.00036662      -0.01775284       0.00000007       0.00000006       0.00007816       0.00000182      -0.00000226      -0.00000005      -0.00801141
Cl      -0.05454046       0.03308724       7.63753248       0.00149961      -0.00187824       0.04013094       0.00000004       0.00000006       0.00010052       0.00000007      -0.00000003      -0.00000005      -0.01188964
Na       0.00249236       4.93292447       0.03234350      -0.00062977       0.00162032       0.01174221       0.00000001       0.00000006       0.00007343       0.00000019      -0.00000052      -0.00000002      -0.00718295
Cl      -0.03576958       4.99885217       2.57050007       0.00031514      -0.00086911       0.02040726       0.00000001       0.00000003       0.00010696       0.00000116      -0.00000089      -0.00000002      -0.01298407
Na      -0.04487226       5.00054152       4.94731353       0.00077698       0.00019706      -0.01569328       0.00000001       0.00000000       0.00011191       0.00000033       0.00000044       0.00000000      -0.01383504
Cl      -0.00938605       5.01539423       7.44067326      -0.00046234      -0.00094827      -0.01645619       0.00000001       0.00000003       0.00007837      -0.00000064       0.00000082      -0.00000000      -0.00803391
Na       4.97967068      -0.01417104      -0.03825930      -0.00027161      -0.00040291      -0.00534567       0.00000002       0.00000005       0.00009351      -0.00000196      -0.00000143       0.00000003      -0.01065520
Cl       4.92874326      -0.08527303       2.49079029       0.00201811       0.00616378       0.01978577       0.00000005       0.00000058       0.00010773       0.00000468       0.00000060       0.00000016      -0.01322024
Na       4.98385658       0.13388201       4.85391395      -0.00111952      -0.00602099      -0.03449218       0.00000004       0.00000060       0.00009172       0.00000477       0.00000172       0.00000013      -0.01045226
Cl       5.00676359       0.02222667       7.58157803      -0.00062698       0.00026012       0.02005208       0.00000001       0.00000006       0.00007749      -0.00000187      -0.00000031      -0.00000000      -0.00788722
Na       5.03011143       4.94934718       0.00000059      -0.00054268       0.00142909       0.00457116       0.00000001       0.00000005       0.00007988      -0.00000073       0.00000077      -0.00000002      -0.00829583
Cl       5.03254115       4.98118951       2.54626070      -0.00196696       0.00121166      -0.00031636       0.00000014       0.00000010       0.00008433       0.00000255      -0.00000235      -0.00000011      -0.00909591
Na       4.88791456       5.10387108       5.08806068       0.00380676      -0.00300913       0.01518634       0.00000022       0.00000014       0.00009957       0.00000042      -0.00000019      -0.00000018      -0.01175660
Cl       4.97985936       5.03668045       7.50287824      -0.00129712       0.00036837      -0.01944114       0.00000010       0.00000009       0.00009512      -0.00000286       0.00000292      -0.00000009      -0.01095652
