16
Lattice="10.1 0.0 0.0 0.0 10.1 0.0 0.0 0.0 10.1" Properties=species:S:1:pos:R:3:forces:R:3:stresses:R:6:energies:R:1 energy=-0.18585483597379554 stress="2.6408415411308543e-06 -7.866094575314299e-07 8.812607401384863e-06 -7.866094575314299e-07 6.326708801461427e-06 8.014727873956235e-06 8.812607401384863e-06 8.014727873956235e-06 0.001575441965080651" free_energy=-0.18585483597379554 pbc="T T T"
Na      -0.04167578      -0.00562668      -0.21361961      -0.00039689       0.00129354      -0.08133430       0.00000026       0.00000024       0.00014631      -0.00000540       0.00000520      -0.00000025      -0.01994359
Cl       0.16402708      -0.17934356       2.41582526      -0.00394165       0.00264651       0.01466910       0.00000031       0.00000017       0.00008292      -0.00000113       0.00000037      -0.00000022      -0.00889493
Na       0.05028814      -0.12452881       4.89420478       0.00109339       0.00009630      -0.02517331       0.00000016       0.00000011       0.00007109       0.00000247      -0.00000335      -0.00000012      -0.00681813
Cl      -0.09090076       0.05514540       7.72922080       0.00324515      -0.00403635       0.09183851       0.00000011       0.00000018       0.00013449      -0.00000180       0.00000149      -0.00000014      -0.01786679
Na       0.00415394       4.88820746       0.05390583      -0.00094871       0.00237580       0.01268807       0.00000003       0.00000014       0.00006672       0.00000041      -0.00000081      -0.00000005      -0.00604117
Cl      -0.05961597       4.99808695       2.61750012       0.00033966      -0.00130335       0.03821339       0.00000003       0.00000007       0.00011902       0.00000183      -0.00000152      -0.00000004      -0.01509358
Na      -0.07478709       5.00090253       4.91218921       0.00142029       0.00031230      -0.03052932       0.00000003       0.00000000       0.00012712       0.00000058       0.00000063       0.00000001      -0.01648486
Cl      -0.01564342       5.02565705       7.40112210      -0.00081125      -0.00138475      -0.02037214       0.00000003       0.00000007       0.00007483      -0.00000083       0.00000134       0.00000000      -0.00743245
Na       4.96611780      -0.02361840      -0.06376550      -0.00015256      -0.00026409      -0.01784690       0.00000007       0.00000013       0.00010170      -0.00000345      -0.00000252       0.00000009      -0.01209768
Cl       4.88123877      -0.14212172       2.48465048       0.00387176       0.01250055       0.03431885       0.00000017       0.00000203       0.00011665       0.00001012       0.00000164       0.00000055      -0.01504393
Na       4.97309430       0.22313668       4.75652324      -0.00255979      -0.01185957      -0.05368627       0.00000013       0.00000202       0.00009499       0.00001076       0.00000330       0.00000047      -0.01129739
Cl       5.01127265       0.03704445       7.63596339      -0.00115942      -0.00037689       0.03721432       0.00000002       0.00000012       0.00008004      -0.00000281      -0.00000086       0.00000001      -0.00835115
Na       5.05018572       4.91557863       0.00000098      -0.00090495       0.00230788       0.00194382       0.00000004       0.00000013       0.00007667      -0.00000128       0.00000126      -0.00000007      -0.00775971
Cl       5.05423526       4.96864918       2.57710117      -0.00289604       0.00176551      -0.00117417       0.00000033       0.00000026       0.00007726       0.00000382      -0.00000349      -0.00000028      -0.00793427
Na       4.81319093       5.17311847       5.14676780       0.00655324      -0.00512337       0.02669264       0.00000061       0.00000039       0.00010311      -0.00000009       0.00000069      -0.00000048      -0.01248488
Cl       4.96643227       5.06113408       7.50479706      -0.00275225       0.00104998      -0.02746229       0.00000031       0.00000026       0.00010252      -0.00000519       0.00000544      -0.00000027      -0.01231032
