16
Lattice="10.2 0.0 0.0 0.0 10.2 0.0 0.0 0.0 10.2" Properties=species:S:1:pos:R:3:forces:R:3:stresses:R:6:energies:R:1 energy=-0.15017311985713647 stress="4.1607918882373634e-07 -1.9426475410640476e-07 6.029400826112442e-07 -1.9426475410640476e-07 8.332299480580203e-07 3.5653502717789924e-06 6.029400826112442e-07 3.5653502717789924e-06 0.0013382439490760365" free_energy=-0.15017311985713647 pbc="T T T"
Na      -0.01667031      -0.00225067      -0.08544784       0.00079724      -0.00056189      -0.00300549       0.00000004       0.00000003       0.00008386      -0.00000152       0.00000164      -0.00000004      -0.00942283
Cl       0.06561083      -0.07173742       2.46633011      -0.00181113       0.00126542       0.00630507       0.00000006       0.00000003       0.00008719      -0.00000069       0.00000045      -0.00000004      -0.01001885
Na       0.02011526      -0.04981152       4.95768191       0.00014966       0.00038541      -0.01289489       0.00000003       0.00000003       0.00008031       0.00000133      -0.00000157      -0.00000003      -0.00878874
Cl      -0.03636030       0.02205816       7.59168832       0.00086423      -0.00108895       0.00959532       0.00000002       0.00000003       0.00007698       0.00000049      -0.00000038      -0.00000002      -0.00819272
Na       0.00166158       4.95528298       0.02156233      -0.00042247       0.00101981       0.01679414       0.00000000       0.00000002       0.00006855       0.00000025      -0.00000036      -0.00000001      -0.00668875
Cl      -0.02384639       4.99923478       2.54700005       0.00024312      -0.00060868       0.01288991       0.00000000       0.00000001       0.00009921       0.00000078      -0.00000058      -0.00000001      -0.01215030
Na      -0.02991484       5.00036101       4.96487568       0.00049757       0.00013368      -0.00971426       0.00000000       0.00000000       0.00010243       0.00000021       0.00000030       0.00000000      -0.01272279
Cl      -0.00625737       5.01026282       7.46044884      -0.00031821      -0.00054481      -0.01996979       0.00000000       0.00000001       0.00007177      -0.00000032       0.00000051       0.00000000      -0.00726124
Na       4.98644712      -0.00944736      -0.02550620      -0.00030319      -0.00043352       0.00876149       0.00000001       0.00000002       0.00007850      -0.00000115      -0.00000083       0.00000001      -0.00845910
Cl       4.95249551      -0.05684869       2.49386019       0.00125536       0.00370932       0.01282915       0.00000002       0.00000022       0.00010020       0.00000260       0.00000027       0.00000006      -0.01236797
Na       4.98923772       0.08925467       4.90260930      -0.00060976      -0.00373943      -0.02391849       0.00000001       0.00000023       0.00008865       0.00000252       0.00000105       0.00000005      -0.01031092
Cl       5.00450906       0.01481778       7.55438535      -0.00034241       0.00046362       0.00232785       0.00000000       0.00000003       0.00006695      -0.00000123      -0.00000005      -0.00000000      -0.00640205
Na       5.02007429       4.96623145       0.00000039      -0.00026121       0.00079408       0.01292078       0.00000000       0.00000002       0.00007178      -0.00000027       0.00000039      -0.00000001      -0.00726239
Cl       5.02169410       4.98745967       2.53084047      -0.00138649       0.00085636      -0.00005296       0.00000006       0.00000005       0.00008527       0.00000174      -0.00000160      -0.00000005      -0.00967969
Na       4.92527637       5.06924739       5.05870712       0.00250695      -0.00199222       0.00982394       0.00000009       0.00000006       0.00009504       0.00000042      -0.00000031      -0.00000008      -0.01143105
Cl       4.98657291       5.02445363       7.50191882      -0.00085926       0.00034177      -0.02269176       0.00000004       0.00000003       0.00008155      -0.00000159       0.00000168      -0.00000003      -0.00901375
