16
Lattice="10.3 0.0 0.0 0.0 10.3 0.0 0.0 0.0 10.3" Properties=species:S:1:pos:R:3:forces:R:3:stresses:R:6:energies:R:1 energy=-0.14126530218603783 stress="0.0 0.0 0.0 0.0 0.0 0.0 0.0 0.0 0.0012522551178669862" free_energy=-0.14126530218603783 pbc="T T T"
Na       0.00000000       0.00000000       0.00000000       0.00000000       0.00000000       0.02128620       0.00000000       0.00000000       0.00006731       0.00000000       0.00000000       0.00000000      -0.00682071
Cl       0.00000000       0.00000000       2.50000000       0.00000000       0.00000000       0.00000000       0.00000000       0.00000000       0.00008923       0.00000000       0.00000000       0.00000000      -0.01083745
Na       0.00000000       0.00000000       5.00000000       0.00000000       0.00000000       0.00000000       0.00000000       0.00000000       0.00008923       0.00000000       0.00000000       0.00000000      -0.01083745
Cl       0.00000000       0.00000000       7.50000000       0.00000000       0.00000000      -0.02128620       0.00000000       0.00000000       0.00006731       0.00000000       0.00000000       0.00000000      -0.00682071
Na       0.00000000       5.00000000       0.00000000       0.00000000       0.00000000       0.02128620       0.00000000       0.00000000       0.00006731       0.00000000       0.00000000       0.00000000      -0.00682071
Cl       0.00000000       5.00000000       2.50000000       0.00000000       0.00000000       0.00000000       0.00000000       0.00000000       0.00008923       0.00000000       0.00000000       0.00000000      -0.01083745
Na       0.00000000       5.00000000       5.00000000       0.00000000       0.00000000       0.00000000       0.00000000       0.00000000       0.00008923       0.00000000       0.00000000       0.00000000      -0.01083745
Cl       0.00000000       5.00000000       7.50000000       0.00000000       0.00000000      -0.02128620       0.00000000       0.00000000       0.00006731       0.00000000       0.00000000       0.00000000      -0.00682071
Na       5.00000000       0.00000000       0.00000000       0.00000000       0.00000000       0.02128620       0.00000000       0.00000000       0.00006731       0.00000000       0.00000000       0.00000000      -0.00682071
Cl       5.00000000       0.00000000       2.50000000       0.00000000       0.00000000       0.00000000       0.00000000       0.00000000       0.00008923       0.00000000       0.00000000       0.00000000      -0.01083745
Na       5.00000000       0.00000000       5.00000000       0.00000000       0.00000000       0.00000000       0.00000000       0.00000000       0.00008923       0.00000000       0.00000000       0.00000000      -0.01083745
Cl       5.00000000       0.00000000       7.50000000       0.00000000       0.00000000      -0.02128620       0.00000000       0.00000000       0.00006731       0.00000000       0.00000000       0.00000000      -0.00682071
Na       5.00000000       5.00000000       0.00000000       0.00000000       0.00000000       0.02128620       0.00000000       0.00000000       0.00006731       0.00000000       0.00000000       0.00000000      -0.00682071
Cl       5.00000000       5.00000000       2.50000000       0.00000000       0.00000000       0.00000000       0.00000000       0.00000000       0.00008923       0.00000000       0.00000000       0.00000000      -0.01083745
Na       5.00000000       5.00000000       5.00000000       0.00000000       0.00000000       0.00000000       0.00000000       0.00000000       0.00008923       0.00000000       0.00000000       0.00000000      -0.01083745
Cl       5.00000000       5.00000000       7.50000000       0.00000000       0.00000000      -0.02128620       0.00000000       0.00000000       0.00006731       0.00000000       0.00000000       0.00000000      -0.00682071
