16
Lattice="10.3 0.0 0.0 0.0 10.3 0.0 0.0 0.0 10.3" Properties=species:S:1:pos:R:3:forces:R:3:stresses:R:6:energies:R:1 energy=-0.16309479924566136 stress="3.4236080157734187e-06 -7.044078466275158e-07 9.525372280039178e-06 -7.044078466275158e-07 8.6929893337795e-06 1.7574294309308527e-05 9.525372280039178e-06 1.7574294309308527e-05 0.0013579170461440904" free_energy=-0.16309479924566136 pbc="T T T"
Na      -0.05001094      -0.00675202      -0.25634353       0.00027012       0.00054335      -0.05177502       0.00000031       0.00000026       0.00010822      -0.00000484       0.00000478      -0.00000028      -0.01445583
Cl       0.19683250      -0.21521227       2.39899032      -0.00452697       0.00299671       0.01713174       0.00000040       0.00000021       0.00007615      -0.00000106       0.00000015      -0.00000028      -0.00855191
Na       0.06034577      -0.14943457       4.87304573       0.00150154      -0.00010887      -0.02799413       0.00000020       0.00000013       0.00006445       0.00000256      -0.00000361      -0.00000015      -0.00636204
Cl      -0.10908091       0.06617449       7.77506496       0.00275530      -0.00343119       0.06263742       0.00000011       0.00000018       0.00009653      -0.00000122       0.00000102      -0.00000014      -0.01226596
Na       0.00498473       4.86584895       0.06468700      -0.00101631       0.00221824       0.01996599       0.00000003       0.00000014       0.00005212       0.00000103      -0.00000097      -0.00000006      -0.00407238
Cl      -0.07153916       4.99770434       2.64100015       0.00028034      -0.00147700       0.04882445       0.00000004       0.00000010       0.00011931       0.00000201      -0.00000176      -0.00000006      -0.01641289
Na      -0.08974451       5.00108303       4.89462705       0.00179714       0.00036163      -0.03971109       0.00000004       0.00000001       0.00012840       0.00000067       0.00000064       0.00000001      -0.01806565
Cl      -0.01877210       5.03078845       7.38134651      -0.00106117      -0.00110288      -0.02907935       0.00000004       0.00000005       0.00006121      -0.00000030       0.00000143       0.00000001      -0.00572514
Na       4.95934136      -0.02834208      -0.07651860      -0.00060344      -0.00087916      -0.00024604       0.00000008       0.00000015       0.00007671      -0.00000322      -0.00000234       0.00000011      -0.00858208
Cl       4.85748653      -0.17054607       2.48158058       0.00497528       0.01643156       0.04161531       0.00000025       0.00000305       0.00011383       0.00001277       0.00000222       0.00000082      -0.01598143
Na       4.96771316       0.26776401       4.70782789      -0.00349208      -0.01551444      -0.06237729       0.00000019       0.00000302       0.00009168       0.00001368       0.00000399       0.00000072      -0.01191281
Cl       5.01352718       0.04445334       7.66315606      -0.00087976      -0.00003796       0.02100802       0.00000002       0.00000012       0.00005456      -0.00000231      -0.00000057       0.00000000      -0.00451346
Na       5.06022286       4.89869436       0.00000117      -0.00057646       0.00184250       0.01261458       0.00000003       0.00000011       0.00005835      -0.00000053       0.00000088      -0.00000005      -0.00520254
Cl       5.06508231       4.96237902       2.59252141      -0.00324740       0.00196436      -0.00171624       0.00000042       0.00000033       0.00006954       0.00000408      -0.00000370      -0.00000036      -0.00736225
Na       4.77582912       5.20774216       5.17612136       0.00802833      -0.00624176       0.03278570       0.00000083       0.00000052       0.00009902      -0.00000057       0.00000138      -0.00000066      -0.01289409
Cl       4.95971872       5.07336089       7.50575647      -0.00420447       0.00243490      -0.04368405       0.00000044       0.00000031       0.00008783      -0.00000518       0.00000597      -0.00000035      -0.01073437
