8
Lattice="0.0 1.771677808178892 1.771677808178892 1.771677808178892 0.0 1.771677808178892 1.771677808178892 1.771677808178892 0.0" Properties=species:S:1:pos:R:3:forces:R:3:stresses:R:6:energies:R:1 energy=-41.3156461529631 stress="3.1568271380478303 -0.5334955444999103 -0.5158051304122967 -0.5334955444999103 3.132594326556913 -0.17222609833115735 -0.5158051304122967 -0.17222609833115735 3.503681970395731" free_energy=-41.3156461529631 pbc="T T T"
Ne       0.04873036      -0.01835269      -0.01584515      -5.85997339      -6.42260420      -2.94816819       0.47118372       0.44640184       0.56632802      -0.01177786      -0.06423190      -0.16110295      -5.14170361
Ne       0.74281094       0.80096223      -0.06904616       2.75694492       2.16888200      -3.72882353       0.42388015       0.37881921       0.48149595      -0.08436549      -0.03148324      -0.18093800      -5.21844322
Ne       0.82734435      -0.02283621       0.78457117      -0.17579887      -5.00636320      -1.21061782       0.48578525       0.42675688       0.49018789      -0.10339234      -0.06916148      -0.05715951      -5.25404248
Ne       1.54251889       0.81886324       0.71319578       8.82530613      -1.66263990      -1.28335368       0.29133020       0.37417853       0.45678286      -0.02824767       0.02278851       0.07062884      -5.17395840
Ne      -0.00967252       0.76347837       0.80901308     -10.08567181      -2.50049845      -4.54272974       0.23857152       0.45078412       0.38158709      -0.04520864      -0.20320114      -0.10970939      -5.13411512
Ne       0.74200326       1.54482715       0.74866425      -0.69934013      12.75529418      -1.67869890       0.34642083       0.14020373       0.38069629       0.08804206       0.00062781       0.02032769      -5.05858289
Ne       0.77626641       0.79248446       1.51698142       3.46819353      -1.89096963      13.96756568       0.26200128       0.31641254       0.10389533       0.05977754      -0.14862959      -0.05215175      -4.99412270
Ne       1.58434171       1.57704772       1.56507483       1.77033962       2.55889920       1.42482618       0.63765419       0.59903749       0.64270854      -0.04705370      -0.02251410      -0.06339048      -5.34067774
