8
Lattice="0.0 1.5007249566861207 1.5007249566861207 1.5007249566861207 0.0 1.5007249566861207 1.5007249566861207 1.5007249566861207 0.0" Properties=species:S:1:pos:R:3:forces:R:3:stresses:R:6:energies:R:1 energy=-47.72797868236748 stress="-18.04955219948462 -0.4465770210726063 1.233528182529717 -0.4465770210726063 -19.89271352475523 -2.6987586740658633 1.233528182529717 -2.6987586740658633 -19.05294748291191" free_energy=-47.72797868236748 pbc="T T T"
Ne      -0.01250274      -0.00168800      -0.06408588       6.61077604       8.56390818      73.60908881      -2.45016100      -2.70699485      -2.49602320       0.05947965      -0.11985037      -0.33471046      -5.71046232
Ne       0.82420812       0.72119693      -0.02525242     -51.49442236      50.26334211      90.59957442      -3.30012289      -3.53790059      -3.77860049      -1.31174746       0.75443492       0.37537500      -4.39124127
Ne       0.79008644      -0.03735864       0.74326143     -27.68462834      40.28620624      -8.82667253      -2.11677592      -1.79753761      -2.23768911      -0.33472793      -0.69309311       0.01423544      -6.41281959
Ne       1.52272977       0.79154362       0.84376624     -15.90254743       9.75431990     -41.36290194      -1.68502094      -2.18256719      -1.40866013       0.43189665       0.13928463      -0.08604049      -6.73199279
Ne       0.00124618       0.74146224       0.79117175      54.06358613      -5.41361039     -71.32248964      -2.68940470      -2.43187551      -2.99149865       0.03477131       1.03539323       0.03469246      -5.55945871
Ne       0.75711521       1.54942609       0.81025004       8.18857712     -54.85236717     -63.17920057      -2.07796128      -2.89104360      -2.89225080      -1.48168751       0.26879966      -0.46419924      -5.63901226
Ne       0.75256387       0.77527076       1.52365676       8.05681840      -7.27408681      -4.73745842      -1.55289856      -1.79130373      -1.66403355      -0.42409378       0.02573895      -0.39124176      -6.93094672
Ne       1.54530697       1.55769711       1.52033663      18.16184045     -41.32771207      25.22005987      -2.17720691      -2.55349045      -1.58419156       0.32735039      -0.17717973       0.40531203      -6.35204502
