8
Lattice="0.0 1.9833090330970666 1.9833090330970666 1.9833090330970666 0.0 1.9833090330970666 1.9833090330970666 1.9833090330970666 0.0" Properties=species:S:1:pos:R:3:forces:R:3:stresses:R:6:energies:R:1 energy=-25.04658113692765 stress="-0.9642493405871413 -1.4057261301766744 0.4474563836305067 -1.4057261301766744 -0.4998566055240676 -0.3452978790476443 0.4474563836305067 -0.3452978790476443 -0.15246147324418016" free_energy=-25.04658113692765 pbc="T T T"
Ne       0.05365885       0.01309530       0.00289492     -20.59752359     -17.04234617      -6.92362117      -0.20015784      -0.18648328       0.08502884      -0.00046118      -0.13591799      -0.36747700      -2.58579600
Ne       0.71909522       0.76667835      -0.01064277      20.38817358      12.32264376     -11.18345294      -0.24858620      -0.35337905      -0.07617508      -0.08508642       0.17676909      -0.37826775      -2.98361727
Ne       0.77251776      -0.01881002       0.77368545       1.76989316      -9.28528966       1.67737315      -0.03542685      -0.03552248      -0.09584998      -0.08625939      -0.17209866      -0.07634759      -3.38570244
Ne       1.53568346       0.73558406       0.80153867      15.02445228       2.89974546     -10.94060819      -0.15894043       0.07938025      -0.05577668      -0.00786674       0.29862584      -0.06661481      -3.27279473
Ne       0.02643954       0.82628719       0.77650101     -20.45607834      -9.73943567       4.22767351      -0.29069780      -0.09021577      -0.07714057      -0.01296128       0.09612220      -0.23847104      -3.15740624
Ne       0.76285968       1.53363920       0.72860568      11.22233136      16.46743570       3.21687753      -0.11081403      -0.19849931       0.06858877      -0.06291022       0.00359790      -0.24322920      -3.23451184
Ne       0.80447102       0.74196797       1.51444860      -7.88011503       3.86585235      19.39330787      -0.18531064       0.03804172      -0.26399961      -0.08763278       0.19728777      -0.00928502      -3.17836185
Ne       1.54383050       1.59458445       1.55710149       0.52886657       0.51139423       0.53245023       0.26568445       0.24682131       0.26286283      -0.00211987      -0.01692976      -0.02603372      -3.24839076
