8
Lattice="0.0 1.9936918605062268 1.9936918605062268 1.9936918605062268 0.0 1.9936918605062268 1.9936918605062268 1.9936918605062268 0.0" Properties=species:S:1:pos:R:3:forces:R:3:stresses:R:6:energies:R:1 energy=-25.238572593818112 stress="-0.5811784869220502 -0.01775018950373749 -0.2547563205584725 -0.01775018950373749 -0.607687558809573 -0.12028647870278472 -0.2547563205584725 -0.12028647870278472 -0.5075185330296905" free_energy=-25.238572593818112 pbc="T T T"
Ne       0.00151685       0.01499854      -0.02987727      -3.63347940      -4.75116732      -4.06685767       0.15683432       0.12716541       0.15581637      -0.06639251      -0.03517388      -0.07421375      -3.09693486
Ne       0.79580796       0.76245095      -0.04753732       0.99236627       2.70426787      -2.69154605       0.05204193       0.13635465       0.11853637       0.04364909      -0.02224361      -0.07319916      -3.53655123
Ne       0.75556880       0.01795726       0.78496750       1.64681653     -11.92955839      -3.38921814       0.00086370      -0.10728520       0.00409061      -0.10145244      -0.05029836       0.04273004      -3.39404183
Ne       1.51557570       0.79356009       0.77236039      19.45183070      -9.71680829     -10.98065706      -0.27351274      -0.19662939      -0.19686429      -0.13715636       0.16149687       0.12223250      -3.07892396
Ne       0.01275217       0.78496759       0.74029551      -8.54610601       2.99166409       1.19707005      -0.02297655      -0.05877669       0.06549060      -0.07432908      -0.01088418       0.02928037      -3.45657427
Ne       0.78552991       1.53179338       0.82140938     -14.34192250      19.82051174     -17.41806780      -0.32937413      -0.29109724      -0.20595182       0.23594410      -0.23171076       0.11157390      -2.89093048
Ne       0.79670025       0.77638407       1.52051025      -8.61401349      -7.41620711      23.77541239      -0.10192285      -0.27201021      -0.37455497       0.11204546       0.16623551      -0.08934767      -2.98900906
Ne       1.55163298       1.55479679       1.51373156      13.04450791       8.29729740      13.57386429      -0.06313216       0.05459111      -0.07408141      -0.13259473      -0.23217791      -0.08680642      -2.79560692
