8
Lattice="0.0 1.6777633902145623 1.6777633902145623 1.6777633902145623 0.0 1.6777633902145623 1.6777633902145623 1.6777633902145623 0.0" Properties=species:S:1:pos:R:3:forces:R:3:stresses:R:6:energies:R:1 energy=-48.22327640740773 stress="1.9486446044001389 -0.6178121989274786 -1.3639759727769998 -0.6178121989274786 2.96387776632702 -0.26592748804808225 -1.3639759727769998 -0.26592748804808225 1.7009959538219817" free_energy=-48.22327640740773 pbc="T T T"
Ne       0.01323682      -0.00992610       0.07292314     -17.33620856     -12.96769344     -22.11421971       0.20634860       0.21290429       0.07994520      -0.37825330      -0.47447846      -0.08633430      -5.80898275
Ne       0.76743724       0.77828830       0.04747443       7.64224193       5.49258185     -21.37477656      -0.01501895       0.48708615       0.09321706       0.11823688       0.16280837      -0.10922449      -5.93868560
Ne       0.74772303      -0.01774910       0.78062810      12.14359805     -12.33461202      13.20614146       0.12764863       0.37481276       0.12265947       0.06715867      -0.49811005      -0.03063236      -5.94590505
Ne       1.54010390       0.73921706       0.76885370      12.69250132      -1.01752920       1.96792632       0.35899452       0.59531809       0.42257199      -0.08952770      -0.14718797      -0.07527957      -6.27962445
Ne      -0.01076487       0.79310415       0.72505634     -19.23615906       9.46475804      15.75056287       0.10627720       0.17568757      -0.01052859      -0.36594960       0.25610398       0.01482511      -5.79104205
Ne       0.75399463       1.58454173       0.83071993      -5.70783092      13.03445136     -12.95139248       0.40355176       0.33977751       0.24793833       0.25745893      -0.30629928      -0.05328044      -6.10078086
Ne       0.72966461       0.79434543       1.52058176      -2.58483574      -9.73459532      15.70243740       0.41950517       0.20296090       0.29514470       0.17971388      -0.03280885      -0.14262786      -6.10442642
Ne       1.52429441       1.52384362       1.53732476      12.38669299       8.06263874       9.81332071       0.34133767       0.57533051       0.45004780      -0.05476524      -0.32400372      -0.13525828      -6.25382923
