# LAMMPS data file written by OVITO Basic 3.6.0
2 atoms
1 atom types
0.0 31.0648 xlo xhi
0.0 31.0648 ylo yhi
0.0 31.0648 zlo zhi

Masses

1 18.0154

Atoms  # atomic

1 1 0.0 0.0 0.0
2 1 0.96 0.0 0.0

