 vasp.5.4.4.18Apr17-6-g9f103f2a35 (build Aug 01 2018 12:10:22) complex          
  
 executed on        TETRALITH-B01 date 2020.10.15  12:13:16
 running on   32 total cores
 distrk:  each k-point on   32 cores,    1 groups
 distr:  one band on NCORES_PER_BAND=  16 cores,    2 groups


--------------------------------------------------------------------------------------------------------


 INCAR:
 POTCAR:    PAW_PBE Ce 23Dec2003                  
 POTCAR:    PAW_PBE O 08Apr2002                   

 ----------------------------------------------------------------------------- 
|                                                                             |
|           W    W    AA    RRRRR   N    N  II  N    N   GGGG   !!!           |
|           W    W   A  A   R    R  NN   N  II  NN   N  G    G  !!!           |
|           W    W  A    A  R    R  N N  N  II  N N  N  G       !!!           |
|           W WW W  AAAAAA  RRRRR   N  N N  II  N  N N  G  GGG   !            |
|           WW  WW  A    A  R   R   N   NN  II  N   NN  G    G                |
|           W    W  A    A  R    R  N    N  II  N    N   GGGG   !!!           |
|                                                                             |
|      For optimal performance we recommend to set                            |
|        NCORE= 4 - approx SQRT( number of cores)                             |
|      NCORE specifies how many cores store one orbital (NPAR=cpu/NCORE).     |
|      This setting can  greatly improve the performance of VASP for DFT.     |
|      The default,   NCORE=1            might be grossly inefficient         |
|      on modern multi-core architectures or massively parallel machines.     |
|      Do your own testing !!!!                                               |
|      Unfortunately you need to use the default for GW and RPA calculations. |
|      (for HF NCORE is supported but not extensively tested yet)             |
|                                                                             |
 ----------------------------------------------------------------------------- 

 POTCAR:    PAW_PBE Ce 23Dec2003                  
   VRHFIN =Ce : [core= Kr 4d10]                                                 
   LEXCH  = PE                                                                  
   EATOM  =  1063.0861 eV,   78.1346 Ry                                         
                                                                                
   TITEL  = PAW_PBE Ce 23Dec2003                                                
   LULTRA =        F    use ultrasoft PP ?                                      
   IUNSCR =        1    unscreen: 0-lin 1-nonlin 2-no                           
   RPACOR =    1.800    partial core radius                                     
   POMASS =  140.115; ZVAL   =   12.000    mass and valenz                      
   RCORE  =    2.700    outmost cutoff radius                                   
   RWIGS  =    2.500; RWIGS  =    1.323    wigner-seitz radius (au A)           
   ENMAX  =  273.042; ENMIN  =  204.781 eV                                      
   RCLOC  =    1.810    cutoff for local pot                                    
   LCOR   =        T    correct aug charges                                     
   LPAW   =        T    paw PP                                                  
   EAUG   =  580.196                                                            
   DEXC   =    0.000                                                            
   RMAX   =    2.749    core radius for proj-oper                               
   RAUG   =    1.300    factor for augmentation sphere                          
   RDEP   =    2.810    radius for radial grids                                 
   RDEPT  =    2.162    core radius for aug-charge                              
                                                                                
   Atomic configuration                                                         
   14 entries                                                                   
     n  l   j            E        occ.                                          
     1  0  0.50    -40258.9816   2.0000                                         
     2  0  0.50     -6445.4884   2.0000                                         
     2  1  1.50     -5771.7470   6.0000                                         
     3  0  0.50     -1387.9739   2.0000                                         
     3  1  1.50     -1173.8158   6.0000                                         
     3  2  2.50      -869.9108  10.0000                                         
     4  0  0.50      -280.8706   2.0000                                         
     4  1  1.50      -210.9815   6.0000                                         
     4  2  2.50      -110.4558  10.0000                                         
     5  0  0.50       -40.5819   2.0000                                         
     6  0  0.50        -3.7444   2.0000                                         
     5  1  1.50       -23.2188   6.0000                                         
     5  2  2.50        -3.0598   1.0000                                         
     4  3  2.50        -5.3970   1.0000                                         
   Description                                                                  
     l       E           TYP  RCUT    TYP  RCUT                                 
     0    -40.5819164     23  1.500                                             
     0     -3.7443793     23  2.300                                             
     1    -23.2188445     23  2.000                                             
     1     40.8174780     23  2.300                                             
     2     -3.0597556     23  2.500                                             
     2     13.6058260     23  2.500                                             
     3     -5.3970469     23  2.700                                             
     3     -5.8505052     23  2.700                                             
  local pseudopotential read in
  partial core-charges read in
  partial kinetic energy density read in
  atomic valenz-charges read in
  non local Contribution for L=           0  read in
    real space projection operators read in
  non local Contribution for L=           0  read in
    real space projection operators read in
  non local Contribution for L=           1  read in
    real space projection operators read in
  non local Contribution for L=           1  read in
    real space projection operators read in
  non local Contribution for L=           2  read in
    real space projection operators read in
  non local Contribution for L=           2  read in
    real space projection operators read in
  non local Contribution for L=           3  read in
    real space projection operators read in
  non local Contribution for L=           3  read in
    real space projection operators read in
    PAW grid and wavefunctions read in
 
   number of l-projection  operators is LMAX  =           8
   number of lm-projection operators is LMMAX =          32
 
 POTCAR:    PAW_PBE O 08Apr2002                   
   VRHFIN =O: s2p4                                                              
   LEXCH  = PE                                                                  
   EATOM  =   432.3788 eV,   31.7789 Ry                                         
                                                                                
   TITEL  = PAW_PBE O 08Apr2002                                                 
   LULTRA =        F    use ultrasoft PP ?                                      
   IUNSCR =        1    unscreen: 0-lin 1-nonlin 2-no                           
   RPACOR =    1.200    partial core radius                                     
   POMASS =   16.000; ZVAL   =    6.000    mass and valenz                      
   RCORE  =    1.520    outmost cutoff radius                                   
   RWIGS  =    1.550; RWIGS  =    0.820    wigner-seitz radius (au A)           
   ENMAX  =  400.000; ENMIN  =  300.000 eV                                      
   ICORE  =        2    local potential                                         
   LCOR   =        T    correct aug charges                                     
   LPAW   =        T    paw PP                                                  
   EAUG   =  605.392                                                            
   DEXC   =    0.000                                                            
   RMAX   =    1.553    core radius for proj-oper                               
   RAUG   =    1.300    factor for augmentation sphere                          
   RDEP   =    1.550    radius for radial grids                                 
   RDEPT  =    1.329    core radius for aug-charge                              
                                                                                
   Atomic configuration                                                         
    4 entries                                                                   
     n  l   j            E        occ.                                          
     1  0  0.50      -514.6923   2.0000                                         
     2  0  0.50       -23.9615   2.0000                                         
     2  1  0.50        -9.0305   4.0000                                         
     3  2  1.50        -9.5241   0.0000                                         
   Description                                                                  
     l       E           TYP  RCUT    TYP  RCUT                                 
     0    -23.9615318     23  1.200                                             
     0     -9.5240782     23  1.200                                             
     1     -9.0304911     23  1.520                                             
     1      8.1634956     23  1.520                                             
     2     -9.5240782      7  1.500                                             
  local pseudopotential read in
  partial core-charges read in
  partial kinetic energy density read in
  kinetic energy density of atom read in
  atomic valenz-charges read in
  non local Contribution for L=           0  read in
    real space projection operators read in
  non local Contribution for L=           0  read in
    real space projection operators read in
  non local Contribution for L=           1  read in
    real space projection operators read in
  non local Contribution for L=           1  read in
    real space projection operators read in
    PAW grid and wavefunctions read in
 
   number of l-projection  operators is LMAX  =           4
   number of lm-projection operators is LMMAX =           8
 
  PAW_PBE Ce 23Dec2003                  :
 energy of atom  1       EATOM=-1063.0861
 kinetic energy error for atom=    0.0451 (will be added to EATOM!!)
  PAW_PBE O 08Apr2002                   :
 energy of atom  2       EATOM= -432.3788
 kinetic energy error for atom=    0.1156 (will be added to EATOM!!)
 
 
 POSCAR: Ceria 111 3x3                           
  positions in direct lattice
  No initial velocities read in
 exchange correlation table for  LEXCH =        8
   RHO(1)=    0.500       N(1)  =     2000
   RHO(2)=  100.500       N(2)  =     4000
 


--------------------------------------------------------------------------------------------------------


 ion  position               nearest neighbor table
   1  0.000  0.000  0.000-   2 2.33   3 2.33   3 2.33   2 2.33   2 2.33   3 2.33
   2  0.333  0.667  0.022-   1 2.33   1 2.33   1 2.33
   3  0.667  0.333  0.978-   1 2.33   1 2.33   1 2.33
 
  LATTYP: Found a hexagonal cell.
 ALAT       =     3.7974462577
 C/A-ratio  =     9.2904540594
  
  Lattice vectors:
  
 A1 = (   3.7974462577,   0.0000000000,   0.0000000000)
 A2 = (  -1.8987231288,   3.2886849287,   0.0000000000)
 A3 = (   0.0000000000,   0.0000000000,  35.2800000000)


Analysis of symmetry for initial positions (statically):
=====================================================================
 Subroutine PRICEL returns:
 Original cell was already a primitive cell.
 

 Routine SETGRP: Setting up the symmetry group for a 
 hexagonal supercell.


 Subroutine GETGRP returns: Found 12 space group operations
 (whereof 12 operations were pure point group operations)
 out of a pool of 24 trial point group operations.


The static configuration has the point symmetry D_3d.


Analysis of symmetry for dynamics (positions and initial velocities):
=====================================================================
 Subroutine PRICEL returns:
 Original cell was already a primitive cell.
 

 Routine SETGRP: Setting up the symmetry group for a 
 hexagonal supercell.


 Subroutine GETGRP returns: Found 12 space group operations
 (whereof 12 operations were pure point group operations)
 out of a pool of 24 trial point group operations.


The dynamic configuration has the point symmetry D_3d.


 Subroutine INISYM returns: Found 12 space group operations
 (whereof 12 operations are pure point group operations),
 and found     1 'primitive' translations

 
 
 KPOINTS: 1x1x1                                   

Automatic generation of k-mesh.
Space group operators:
 irot       det(A)        alpha          n_x          n_y          n_z        tau_x        tau_y        tau_z
    1     1.000000     0.000000     1.000000     0.000000     0.000000     0.000000     0.000000     0.000000
    2    -1.000000     0.000000     1.000000     0.000000     0.000000     0.000000     0.000000     0.000000
    3     1.000000   120.000000     0.000000     0.000000    -1.000000     0.000000     0.000000     0.000000
    4    -1.000000   120.000000     0.000000     0.000000    -1.000000     0.000000     0.000000     0.000000
    5     1.000000   120.000000     0.000000     0.000000     1.000000     0.000000     0.000000     0.000000
    6    -1.000000   120.000000     0.000000     0.000000     1.000000     0.000000     0.000000     0.000000
    7     1.000000   180.000000     1.000000     0.000000     0.000000     0.000000     0.000000     0.000000
    8    -1.000000   180.000000     1.000000     0.000000     0.000000     0.000000     0.000000     0.000000
    9     1.000000   180.000000     0.500000    -0.866025     0.000000     0.000000     0.000000     0.000000
   10    -1.000000   180.000000     0.500000    -0.866025     0.000000     0.000000     0.000000     0.000000
   11     1.000000   180.000000    -0.500000    -0.866025     0.000000     0.000000     0.000000     0.000000
   12    -1.000000   180.000000    -0.500000    -0.866025     0.000000     0.000000     0.000000     0.000000
 
 Subroutine IBZKPT returns following result:
 ===========================================
 
 Found     10 irreducible k-points:
 
 Following reciprocal coordinates:
            Coordinates               Weight
  0.000000  0.000000  0.000000      1.000000
  0.125000 -0.000000  0.000000      6.000000
  0.250000 -0.000000  0.000000      6.000000
  0.375000 -0.000000  0.000000      6.000000
  0.500000 -0.000000  0.000000      3.000000
  0.125000  0.125000  0.000000      6.000000
  0.250000  0.125000  0.000000     12.000000
  0.375000  0.125000  0.000000     12.000000
  0.250000  0.250000  0.000000      6.000000
  0.375000  0.250000  0.000000      6.000000
 
 Following cartesian coordinates:
            Coordinates               Weight
  0.000000  0.000000  0.000000      1.000000
  0.032259  0.018624  0.000000      6.000000
  0.064517  0.037249  0.000000      6.000000
  0.096776  0.055873  0.000000      6.000000
  0.129034  0.074498  0.000000      3.000000
  0.032259  0.055873  0.000000      6.000000
  0.064517  0.074498  0.000000     12.000000
  0.096776  0.093122  0.000000     12.000000
  0.064517  0.111747  0.000000      6.000000
  0.096776  0.130371  0.000000      6.000000
 


--------------------------------------------------------------------------------------------------------




 Dimension of arrays:
   k-points           NKPTS =     10   k-points in BZ     NKDIM =     10   number of bands    NBANDS=     16
   number of dos      NEDOS =    301   number of ions     NIONS =      3
   non local maximal  LDIM  =      8   non local SUM 2l+1 LMDIM =     32
   total plane-waves  NPLWV = 188160
   max r-space proj   IRMAX =      1   max aug-charges    IRDMAX= 180261
   dimension x,y,z NGX =    28 NGY =   28 NGZ =  240
   dimension x,y,z NGXF=    56 NGYF=   56 NGZF=  480
   support grid    NGXF=   112 NGYF=  112 NGZF=  960
   ions per type =               1   2
   NGX,Y,Z   is equivalent  to a cutoff of  12.26, 12.26, 11.31 a.u.
   NGXF,Y,Z  is equivalent  to a cutoff of  24.52, 24.52, 22.62 a.u.

 SYSTEM =  CeO2                                    
 POSCAR =  Ceria 111 3x3                           

 Startparameter for this run:
   NWRITE =      2    write-flag & timer
   PREC   = accura    normal or accurate (medium, high low for compatibility)
   ISTART =      0    job   : 0-new  1-cont  2-samecut
   ICHARG =      2    charge: 1-file 2-atom 10-const
   ISPIN  =      1    spin polarized calculation?
   LNONCOLLINEAR =      F non collinear calculations
   LSORBIT =      F    spin-orbit coupling
   INIWAV =      1    electr: 0-lowe 1-rand  2-diag
   LASPH  =      T    aspherical Exc in radial PAW
   METAGGA=      F    non-selfconsistent MetaGGA calc.

 Electronic Relaxation 1
   ENCUT  =  400.0 eV  29.40 Ry    5.42 a.u.   6.19  6.19 57.53*2*pi/ulx,y,z
   ENINI  =  400.0     initial cutoff
   ENAUG  =  605.4 eV  augmentation charge cutoff
   NELM   =    140;   NELMIN=  4; NELMDL=  0     # of ELM steps 
   EDIFF  = 0.1E-05   stopping-criterion for ELM
   LREAL  =      F    real-space projection
   NLSPLINE    = F    spline interpolate recip. space projectors
   LCOMPAT=      F    compatible to vasp.4.4
   GGA_COMPAT  = T    GGA compatible to vasp.4.4-vasp.4.6
   LMAXPAW     = -100 max onsite density
   LMAXMIX     =    6 max onsite mixed and CHGCAR
   VOSKOWN=      0    Vosko Wilk Nusair interpolation
   ROPT   =    0.00000   0.00000
 Ionic relaxation
   EDIFFG = -.1E-01   stopping-criterion for IOM
   NSW    =      0    number of steps for IOM
   NBLOCK =      1;   KBLOCK =      1    inner block; outer block 
   IBRION =     -1    ionic relax: 0-MD 1-quasi-New 2-CG
   NFREE  =      1    steps in history (QN), initial steepest desc. (CG)
   ISIF   =      2    stress and relaxation
   IWAVPR =     10    prediction:  0-non 1-charg 2-wave 3-comb
   ISYM   =      2    0-nonsym 1-usesym 2-fastsym
   LCORR  =      T    Harris-Foulkes like correction to forces

   POTIM  = 0.5000    time-step for ionic-motion
   TEIN   =    0.0    initial temperature
   TEBEG  =    0.0;   TEEND  =   0.0 temperature during run
   SMASS  =  -3.00    Nose mass-parameter (am)
   estimated Nose-frequenzy (Omega)   =  0.10E-29 period in steps =****** mass=  -0.330E-27a.u.
   SCALEE = 1.0000    scale energy and forces
   NPACO  =    256;   APACO  = 16.0  distance and # of slots for P.C.
   PSTRESS=    0.0 pullay stress

  Mass of Ions in am
   POMASS = 140.12 16.00
  Ionic Valenz
   ZVAL   =  12.00  6.00
  Atomic Wigner-Seitz radii
   RWIGS  =  -1.00 -1.00
  virtual crystal weights 
   VCA    =   1.00  1.00
   NELECT =      24.0000    total number of electrons
   NUPDOWN=      -1.0000    fix difference up-down

 DOS related values:
   EMIN   =  10.00;   EMAX   =-10.00  energy-range for DOS
   EFERMI =   0.00
   ISMEAR =     0;   SIGMA  =   0.00  broadening in eV -4-tet -1-fermi 0-gaus

 Electronic relaxation 2 (details)
   IALGO  =     38    algorithm
   LDIAG  =      T    sub-space diagonalisation (order eigenvalues)
   LSUBROT=      F    optimize rotation matrix (better conditioning)
   TURBO    =      0    0=normal 1=particle mesh
   IRESTART =      0    0=no restart 2=restart with 2 vectors
   NREBOOT  =      0    no. of reboots
   NMIN     =      0    reboot dimension
   EREF     =   0.00    reference energy to select bands
   IMIX   =      4    mixing-type and parameters
     AMIX     =   0.40;   BMIX     =  1.00
     AMIX_MAG =   1.60;   BMIX_MAG =  1.00
     AMIN     =   0.10
     WC   =   100.;   INIMIX=   1;  MIXPRE=   1;  MAXMIX= -45

 Intra band minimization:
   WEIMIN = 0.0000     energy-eigenvalue tresh-hold
   EBREAK =  0.16E-07  absolut break condition
   DEPER  =   0.30     relativ break condition  

   TIME   =   0.40     timestep for ELM

  volume/ion in A,a.u.               =     146.87       991.10
  Fermi-wavevector in a.u.,A,eV,Ry     =   0.620580  1.172726  5.239869  0.385119
  Thomas-Fermi vector in A             =   1.679781
 
 Write flags
   LWAVE        =      F    write WAVECAR
   LDOWNSAMPLE  =      F    k-point downsampling of WAVECAR
   LCHARG       =      F    write CHGCAR
   LVTOT        =      F    write LOCPOT, total local potential
   LVHAR        =      F    write LOCPOT, Hartree potential only
   LELF         =      F    write electronic localiz. function (ELF)
   LORBIT       =     10    0 simple, 1 ext, 2 COOP (PROOUT), +10 PAW based schemes


 Dipole corrections
   LMONO  =      F    monopole corrections only (constant potential shift)
   LDIPOL =      F    correct potential (dipole corrections)
   IDIPOL =      0    1-x, 2-y, 3-z, 4-all directions 
   EPSILON=  1.0000000 bulk dielectric constant

 LDA+U is selected, type is set to LDAUTYPE =  2
   angular momentum for each species LDAUL =     3   -1
   U (eV)           for each species LDAUU =   5.0  0.0
   J (eV)           for each species LDAUJ =   0.0  0.0
 Exchange correlation treatment:
   GGA     =    PE    GGA type
   LEXCH   =     8    internal setting for exchange type
   VOSKOWN=      0    Vosko Wilk Nusair interpolation
   LHFCALC =     F    Hartree Fock is set to
   LHFONE  =     F    Hartree Fock one center treatment
   AEXX    =    0.0000 exact exchange contribution

 Linear response parameters
   LEPSILON=     F    determine dielectric tensor
   LRPA    =     F    only Hartree local field effects (RPA)
   LNABLA  =     F    use nabla operator in PAW spheres
   LVEL    =     F    velocity operator in full k-point grid
   LINTERFAST=   F  fast interpolation
   KINTER  =     0    interpolate to denser k-point grid
   CSHIFT  =0.1000    complex shift for real part using Kramers Kronig
   OMEGAMAX=  -1.0    maximum frequency
   DEG_THRESHOLD= 0.2000000E-02 threshold for treating states as degnerate
   RTIME   =   -0.100 relaxation time in fs
  (WPLASMAI=    0.000 imaginary part of plasma frequency in eV, 0.658/RTIME)
   DFIELD  = 0.0000000 0.0000000 0.0000000 field for delta impulse in time
 
 Orbital magnetization related:
   ORBITALMAG=     F  switch on orbital magnetization
   LCHIMAG   =     F  perturbation theory with respect to B field
   DQ        =  0.001000  dq finite difference perturbation B field
   LLRAUG    =     F  two centre corrections for induced B field



--------------------------------------------------------------------------------------------------------


 Static calculation
 charge density and potential will be updated during run
 non-spin polarized calculation
 Variant of blocked Davidson
 Davidson routine will perform the subspace rotation
 perform sub-space diagonalisation
    after iterative eigenvector-optimisation
 modified Broyden-mixing scheme, WC =      100.0
 initial mixing is a Kerker type mixing with AMIX =  0.4000 and BMIX =      1.0000
 Hartree-type preconditioning will be used
 using additional bands            4
 reciprocal scheme for non local part
 use partial core corrections
 calculate Harris-corrections to forces 
   (improved forces if not selfconsistent)
 use gradient corrections 
 use of overlap-Matrix (Vanderbilt PP)
 Gauss-broadening in eV      SIGMA  =   0.00


--------------------------------------------------------------------------------------------------------


  energy-cutoff  :      400.00
  volume of cell :      440.60
      direct lattice vectors                 reciprocal lattice vectors
     3.797446258  0.000000000  0.000000000     0.263334866  0.152036456  0.000000000
    -1.898723129  3.288684929  0.000000000     0.000000000  0.304072911  0.000000000
     0.000000000  0.000000000 35.280000000     0.000000000  0.000000000  0.028344671

  length of vectors
     3.797446258  3.797446258 35.280000000     0.304072911  0.304072911  0.028344671


 
 k-points in units of 2pi/SCALE and weight: 1x1x1                                   
   0.00000000  0.00000000  0.00000000       0.016
   0.03225852  0.01862447  0.00000000       0.094
   0.06451704  0.03724893  0.00000000       0.094
   0.09677556  0.05587340  0.00000000       0.094
   0.12903408  0.07449786  0.00000000       0.047
   0.03225852  0.05587340  0.00000000       0.094
   0.06451704  0.07449786  0.00000000       0.188
   0.09677556  0.09312233  0.00000000       0.188
   0.06451704  0.11174679  0.00000000       0.094
   0.09677556  0.13037126  0.00000000       0.094
 
 k-points in reciprocal lattice and weights: 1x1x1                                   
   0.00000000  0.00000000  0.00000000       0.016
   0.12500000 -0.00000000  0.00000000       0.094
   0.25000000 -0.00000000  0.00000000       0.094
   0.37500000 -0.00000000  0.00000000       0.094
   0.50000000 -0.00000000  0.00000000       0.047
   0.12500000  0.12500000  0.00000000       0.094
   0.25000000  0.12500000  0.00000000       0.188
   0.37500000  0.12500000  0.00000000       0.188
   0.25000000  0.25000000  0.00000000       0.094
   0.37500000  0.25000000  0.00000000       0.094
 
 position of ions in fractional coordinates (direct lattice) 
   0.00000000  0.00000000  0.00000000
   0.33333300  0.66666600  0.02197140
   0.66666600  0.33333300  0.97802860
 
 position of ions in cartesian coordinates  (Angst):
   0.00000000  0.00000000  0.00000000
   0.00000000  2.19245443  0.77515099
   1.89872123  1.09622721 34.50484901
 


--------------------------------------------------------------------------------------------------------


 k-point  1 :   0.0000 0.0000 0.0000  plane waves:    8035
 k-point  2 :   0.1250-0.0000 0.0000  plane waves:    7981
 k-point  3 :   0.2500-0.0000 0.0000  plane waves:    7979
 k-point  4 :   0.3750-0.0000 0.0000  plane waves:    8004
 k-point  5 :   0.5000-0.0000 0.0000  plane waves:    8028
 k-point  6 :   0.1250 0.1250 0.0000  plane waves:    7958
 k-point  7 :   0.2500 0.1250 0.0000  plane waves:    8012
 k-point  8 :   0.3750 0.1250 0.0000  plane waves:    8029
 k-point  9 :   0.2500 0.2500 0.0000  plane waves:    8018
 k-point 10 :   0.3750 0.2500 0.0000  plane waves:    8030

 maximum and minimum number of plane-waves per node :       521      482

 maximum number of plane-waves:      8035
 maximum index in each direction: 
   IXMAX=    6   IYMAX=    6   IZMAX=   57
   IXMIN=   -6   IYMIN=   -6   IZMIN=  -57


 parallel 3D FFT for wavefunctions:
    minimum data exchange during FFTs selected (reduces bandwidth)
 parallel 3D FFT for charge:
    minimum data exchange during FFTs selected (reduces bandwidth)


 total amount of memory used by VASP MPI-rank0    44861. kBytes
=======================================================================

   base      :      30000. kBytes
   nonl-proj :       2615. kBytes
   fftplans  :       7951. kBytes
   grid      :       3558. kBytes
   one-center:         49. kBytes
   wavefun   :        688. kBytes
 
     INWAV:  cpu time    0.0000: real time    0.0000
 Broyden mixing: mesh for mixing (old mesh)
   NGX = 13   NGY = 13   NGZ =115
  (NGX  = 56   NGY  = 56   NGZ  =480)
  gives a total of  19435 points

 initial charge density was supplied:
 charge density of overlapping atoms calculated
 number of electron      24.0000000 magnetization 
 keeping initial charge density in first step


--------------------------------------------------------------------------------------------------------


 Maximum index for augmentation-charges         7247 (set IRDMAX)


--------------------------------------------------------------------------------------------------------


 First call to EWALD:  gamma=   0.233
 Maximum number of real-space cells 6x 6x 1
 Maximum number of reciprocal cells 2x 2x11

    FEWALD:  cpu time    0.0013: real time    0.0014


--------------------------------------- Iteration      1(   1)  ---------------------------------------


    POTLOK:  cpu time    0.0254: real time    0.0260
    SETDIJ:  cpu time    0.3961: real time    0.3969
atom =   1  type =  1  l = 3
 
 onsite density matrix
 
spin component  1
 
  0.0699  0.0000  0.0000  0.0000  0.0000  0.0000  0.0000
  0.0000  0.0699  0.0000  0.0000  0.0000  0.0000  0.0000
  0.0000  0.0000  0.0699  0.0000  0.0000  0.0000  0.0000
  0.0000  0.0000  0.0000  0.0699  0.0000 -0.0000  0.0000
  0.0000  0.0000  0.0000  0.0000  0.0699  0.0000  0.0000
  0.0000  0.0000  0.0000 -0.0000  0.0000  0.0699  0.0000
  0.0000  0.0000  0.0000  0.0000  0.0000  0.0000  0.0699
 
spin component  2
 
  0.0699  0.0000  0.0000  0.0000  0.0000  0.0000  0.0000
  0.0000  0.0699  0.0000  0.0000  0.0000  0.0000  0.0000
  0.0000  0.0000  0.0699  0.0000  0.0000  0.0000  0.0000
  0.0000  0.0000  0.0000  0.0699  0.0000 -0.0000  0.0000
  0.0000  0.0000  0.0000  0.0000  0.0699  0.0000  0.0000
  0.0000  0.0000  0.0000 -0.0000  0.0000  0.0699  0.0000
  0.0000  0.0000  0.0000  0.0000  0.0000  0.0000  0.0699
 
 occupancies and eigenvectors
 
  o =  0.0699  v =  0.0000  0.0000 -1.0000  0.0000  0.0000  0.0000  0.0000  0.0000  0.0000  0.0000  0.0000  0.0000  0.0000  0.0000      0.0000  0.0000  0.0000  0.0000  0.0000  0.0000  0.0000  0.0000  0.0000  0.0000  0.0000  0.0000  0.0000  0.0000
  o =  0.0699  v =  0.0000 -1.0000  0.0000  0.0000  0.0000  0.0000  0.0000  0.0000  0.0000  0.0000  0.0000  0.0000  0.0000  0.0000      0.0000  0.0000  0.0000  0.0000  0.0000  0.0000  0.0000  0.0000  0.0000  0.0000  0.0000  0.0000  0.0000  0.0000
  o =  0.0699  v =  0.0000  0.0000  0.0000  1.0000  0.0000  0.0000  0.0000  0.0000  0.0000  0.0000  0.0000  0.0000  0.0000  0.0000      0.0000  0.0000  0.0000  0.0000  0.0000  0.0000  0.0000  0.0000  0.0000  0.0000  0.0000  0.0000  0.0000  0.0000
  o =  0.0699  v =  0.0000  0.0000  0.0000  0.0000  0.0000  1.0000  0.0000  0.0000  0.0000  0.0000  0.0000  0.0000  0.0000  0.0000      0.0000  0.0000  0.0000  0.0000  0.0000  0.0000  0.0000  0.0000  0.0000  0.0000  0.0000  0.0000  0.0000  0.0000
  o =  0.0699  v =  0.0000  0.0000  0.0000  0.0000  1.0000  0.0000  0.0000  0.0000  0.0000  0.0000  0.0000  0.0000  0.0000  0.0000      0.0000  0.0000  0.0000  0.0000  0.0000  0.0000  0.0000  0.0000  0.0000  0.0000  0.0000  0.0000  0.0000  0.0000
  o =  0.0699  v =  0.0000  0.0000  0.0000  0.0000  0.0000  0.0000  0.0000  0.0000  0.0000 -1.0000  0.0000  0.0000  0.0000  0.0000      0.0000  0.0000  0.0000  0.0000  0.0000  0.0000  0.0000  0.0000  0.0000  0.0000  0.0000  0.0000  0.0000  0.0000
  o =  0.0699  v =  0.0000  0.0000  0.0000  0.0000  0.0000  0.0000  0.0000  0.0000 -1.0000  0.0000  0.0000  0.0000  0.0000  0.0000      0.0000  0.0000  0.0000  0.0000  0.0000  0.0000  0.0000  0.0000  0.0000  0.0000  0.0000  0.0000  0.0000  0.0000
  o =  0.0699  v =  0.0000  0.0000  0.0000  0.0000  0.0000  0.0000  0.0000  0.0000  0.0000  0.0000  1.0000  0.0000  0.0000  0.0000      0.0000  0.0000  0.0000  0.0000  0.0000  0.0000  0.0000  0.0000  0.0000  0.0000  0.0000  0.0000  0.0000  0.0000
  o =  0.0699  v =  0.0000  0.0000  0.0000  0.0000  0.0000  0.0000  0.0000  0.0000  0.0000  0.0000  0.0000  0.0000  1.0000  0.0000      0.0000  0.0000  0.0000  0.0000  0.0000  0.0000  0.0000  0.0000  0.0000  0.0000  0.0000  0.0000  0.0000  0.0000
  o =  0.0699  v =  0.0000  0.0000  0.0000  0.0000  0.0000  0.0000  0.0000  0.0000  0.0000  0.0000  0.0000  1.0000  0.0000  0.0000      0.0000  0.0000  0.0000  0.0000  0.0000  0.0000  0.0000  0.0000  0.0000  0.0000  0.0000  0.0000  0.0000  0.0000
  o =  0.0699  v =  0.0000  0.0000  0.0000  0.0000  0.0000  0.0000  0.0000  1.0000  0.0000  0.0000  0.0000  0.0000  0.0000  0.0000      0.0000  0.0000  0.0000  0.0000  0.0000  0.0000  0.0000  0.0000  0.0000  0.0000  0.0000  0.0000  0.0000  0.0000
  o =  0.0699  v =  1.0000  0.0000  0.0000  0.0000  0.0000  0.0000  0.0000  0.0000  0.0000  0.0000  0.0000  0.0000  0.0000  0.0000      0.0000  0.0000  0.0000  0.0000  0.0000  0.0000  0.0000  0.0000  0.0000  0.0000  0.0000  0.0000  0.0000  0.0000
  o =  0.0699  v =  0.0000  0.0000  0.0000  0.0000  0.0000  0.0000  1.0000  0.0000  0.0000  0.0000  0.0000  0.0000  0.0000  0.0000      0.0000  0.0000  0.0000  0.0000  0.0000  0.0000  0.0000  0.0000  0.0000  0.0000  0.0000  0.0000  0.0000  0.0000
  o =  0.0699  v =  0.0000  0.0000  0.0000  0.0000  0.0000  0.0000  0.0000  0.0000  0.0000  0.0000  0.0000  0.0000  0.0000  1.0000      0.0000  0.0000  0.0000  0.0000  0.0000  0.0000  0.0000  0.0000  0.0000  0.0000  0.0000  0.0000  0.0000  0.0000
     EDDAV:  cpu time    0.1518: real time    0.1528
       DOS:  cpu time    0.0004: real time    0.0004
    --------------------------------------------
      LOOP:  cpu time    0.5737: real time    0.5762

 eigenvalue-minimisations  :   368
 total energy-change (2. order) : 0.2736043E+03  (-0.7218933E+03)
 number of electron      24.0000000 magnetization 
 augmentation part       24.0000000 magnetization 

 Free energy of the ion-electron system (eV)
  ---------------------------------------------------
  alpha Z        PSCENC =        12.07679559
  Ewald energy   TEWEN  =      9065.64322770
  -Hartree energ DENC   =    -10643.53512006
  -exchange      EXHF   =         0.00000000
  -V(xc)+E(xc)   XCENC  =        59.50035339
  PAW double counting   =      1543.93901975    -1523.11966362
  entropy T*S    EENTRO =        -0.00000843
  eigenvalues    EBANDS =      -168.46770557
  atomic energy  EATOM  =      1927.56740593
  Solvation  Ediel_sol  =         0.00000000
  ---------------------------------------------------
  free energy    TOTEN  =       273.60430469 eV

  energy without entropy =      273.60431312  energy(sigma->0) =      273.60430891


--------------------------------------------------------------------------------------------------------




--------------------------------------- Iteration      1(   2)  ---------------------------------------


     EDDAV:  cpu time    0.2041: real time    0.2045
       DOS:  cpu time    0.0001: real time    0.0001
    --------------------------------------------
      LOOP:  cpu time    0.2042: real time    0.2046

 eigenvalue-minimisations  :   592
 total energy-change (2. order) :-0.2358705E+03  (-0.2279684E+03)
 number of electron      24.0000000 magnetization 
 augmentation part       24.0000000 magnetization 

 Free energy of the ion-electron system (eV)
  ---------------------------------------------------
  alpha Z        PSCENC =        12.07679559
  Ewald energy   TEWEN  =      9065.64322770
  -Hartree energ DENC   =    -10643.53512006
  -exchange      EXHF   =         0.00000000
  -V(xc)+E(xc)   XCENC  =        59.50035339
  PAW double counting   =      1543.93901975    -1523.11966362
  entropy T*S    EENTRO =         0.00000000
  eigenvalues    EBANDS =      -404.33816680
  atomic energy  EATOM  =      1927.56740593
  Solvation  Ediel_sol  =         0.00000000
  ---------------------------------------------------
  free energy    TOTEN  =        37.73385189 eV

  energy without entropy =       37.73385189  energy(sigma->0) =       37.73385189


--------------------------------------------------------------------------------------------------------




--------------------------------------- Iteration      1(   3)  ---------------------------------------


     EDDAV:  cpu time    0.1570: real time    0.1573
       DOS:  cpu time    0.0002: real time    0.0002
    --------------------------------------------
      LOOP:  cpu time    0.1572: real time    0.1575

 eigenvalue-minimisations  :   408
 total energy-change (2. order) :-0.6564542E+02  (-0.6561331E+02)
 number of electron      24.0000000 magnetization 
 augmentation part       24.0000000 magnetization 

 Free energy of the ion-electron system (eV)
  ---------------------------------------------------
  alpha Z        PSCENC =        12.07679559
  Ewald energy   TEWEN  =      9065.64322770
  -Hartree energ DENC   =    -10643.53512006
  -exchange      EXHF   =         0.00000000
  -V(xc)+E(xc)   XCENC  =        59.50035339
  PAW double counting   =      1543.93901975    -1523.11966362
  entropy T*S    EENTRO =         0.00000000
  eigenvalues    EBANDS =      -469.98359020
  atomic energy  EATOM  =      1927.56740593
  Solvation  Ediel_sol  =         0.00000000
  ---------------------------------------------------
  free energy    TOTEN  =       -27.91157151 eV

  energy without entropy =      -27.91157151  energy(sigma->0) =      -27.91157151


--------------------------------------------------------------------------------------------------------




--------------------------------------- Iteration      1(   4)  ---------------------------------------


     EDDAV:  cpu time    0.1764: real time    0.1768
       DOS:  cpu time    0.0001: real time    0.0001
    --------------------------------------------
      LOOP:  cpu time    0.1765: real time    0.1769

 eigenvalue-minimisations  :   504
 total energy-change (2. order) :-0.3125922E+01  (-0.3125339E+01)
 number of electron      24.0000000 magnetization 
 augmentation part       24.0000000 magnetization 

 Free energy of the ion-electron system (eV)
  ---------------------------------------------------
  alpha Z        PSCENC =        12.07679559
  Ewald energy   TEWEN  =      9065.64322770
  -Hartree energ DENC   =    -10643.53512006
  -exchange      EXHF   =         0.00000000
  -V(xc)+E(xc)   XCENC  =        59.50035339
  PAW double counting   =      1543.93901975    -1523.11966362
  entropy T*S    EENTRO =         0.00000000
  eigenvalues    EBANDS =      -473.10951183
  atomic energy  EATOM  =      1927.56740593
  Solvation  Ediel_sol  =         0.00000000
  ---------------------------------------------------
  free energy    TOTEN  =       -31.03749313 eV

  energy without entropy =      -31.03749313  energy(sigma->0) =      -31.03749313


--------------------------------------------------------------------------------------------------------




--------------------------------------- Iteration      1(   5)  ---------------------------------------


     EDDAV:  cpu time    0.1736: real time    0.1739
       DOS:  cpu time    0.0001: real time    0.0001
    CHARGE:  cpu time    0.0554: real time    0.0556
    MIXING:  cpu time    0.0018: real time    0.0018
    --------------------------------------------
      LOOP:  cpu time    0.2309: real time    0.2315

 eigenvalue-minimisations  :   464
 total energy-change (2. order) :-0.1501765E+00  (-0.1500838E+00)
 number of electron      24.0000000 magnetization 
 augmentation part       -0.2077452 magnetization 

 Broyden mixing:
  rms(total) = 0.24518E+01    rms(broyden)= 0.24516E+01
  rms(prec ) = 0.24898E+01
  weight for this iteration     100.00

 Free energy of the ion-electron system (eV)
  ---------------------------------------------------
  alpha Z        PSCENC =        12.07679559
  Ewald energy   TEWEN  =      9065.64322770
  -Hartree energ DENC   =    -10643.53512006
  -exchange      EXHF   =         0.00000000
  -V(xc)+E(xc)   XCENC  =        59.50035339
  PAW double counting   =      1543.93901975    -1523.11966362
  entropy T*S    EENTRO =         0.00000000
  eigenvalues    EBANDS =      -473.25968836
  atomic energy  EATOM  =      1927.56740593
  Solvation  Ediel_sol  =         0.00000000
  ---------------------------------------------------
  free energy    TOTEN  =       -31.18766967 eV

  energy without entropy =      -31.18766967  energy(sigma->0) =      -31.18766967


--------------------------------------------------------------------------------------------------------




--------------------------------------- Iteration      1(   6)  ---------------------------------------


    POTLOK:  cpu time    0.0221: real time    0.0221
    SETDIJ:  cpu time    0.4071: real time    0.4079
atom =   1  type =  1  l = 3
 
 onsite density matrix
 
spin component  1
 
  0.0551 -0.0000 -0.0000  0.0067 -0.0000 -0.0000  0.0000
 -0.0000  0.0478 -0.0000  0.0000  0.0006 -0.0000 -0.0000
 -0.0000 -0.0000  0.0446 -0.0000  0.0000  0.0006 -0.0000
  0.0067  0.0000 -0.0000  0.0465  0.0000 -0.0000  0.0000
 -0.0000  0.0006  0.0000  0.0000  0.0446 -0.0000 -0.0000
 -0.0000 -0.0000  0.0006 -0.0000 -0.0000  0.0478 -0.0000
  0.0000 -0.0000 -0.0000  0.0000 -0.0000 -0.0000  0.0463
 
spin component  2
 
  0.0551 -0.0000 -0.0000  0.0067 -0.0000 -0.0000  0.0000
 -0.0000  0.0478 -0.0000  0.0000  0.0006 -0.0000 -0.0000
 -0.0000 -0.0000  0.0446 -0.0000  0.0000  0.0006 -0.0000
  0.0067  0.0000 -0.0000  0.0465  0.0000 -0.0000  0.0000
 -0.0000  0.0006  0.0000  0.0000  0.0446 -0.0000 -0.0000
 -0.0000 -0.0000  0.0006 -0.0000 -0.0000  0.0478 -0.0000
  0.0000 -0.0000 -0.0000  0.0000 -0.0000 -0.0000  0.0463
 
 occupancies and eigenvectors
 
  o =  0.0429  v =  0.4790 -0.0000  0.0000 -0.8778  0.0000 -0.0000  0.0000  0.0000  0.0000  0.0000  0.0000  0.0000  0.0000  0.0000      0.0000  0.0000  0.0000  0.0000  0.0000  0.0000  0.0000  0.0000  0.0000  0.0000  0.0000  0.0000  0.0000  0.0000
  o =  0.0429  v =  0.0000  0.0000  0.0000  0.0000  0.0000  0.0000  0.0000  0.4790 -0.0000  0.0000 -0.8778  0.0000 -0.0000  0.0000      0.0000  0.0000  0.0000  0.0000  0.0000  0.0000  0.0000  0.0000  0.0000  0.0000  0.0000  0.0000  0.0000  0.0000
  o =  0.0445  v = -0.0000 -0.0005 -0.9862 -0.0000  0.0031  0.1654  0.0000  0.0000  0.0000  0.0000  0.0000  0.0000  0.0000  0.0000      0.0000  0.0000  0.0000  0.0000  0.0000  0.0000  0.0000  0.0000  0.0000  0.0000  0.0000  0.0000  0.0000  0.0000
  o =  0.0445  v =  0.0000  0.0000  0.0000  0.0000  0.0000  0.0000  0.0000 -0.0000 -0.0005 -0.9862 -0.0000  0.0031  0.1654  0.0000      0.0000  0.0000  0.0000  0.0000  0.0000  0.0000  0.0000  0.0000  0.0000  0.0000  0.0000  0.0000  0.0000  0.0000
  o =  0.0445  v = -0.0000 -0.1654  0.0031  0.0000  0.9862 -0.0005  0.0000  0.0000  0.0000  0.0000  0.0000  0.0000  0.0000  0.0000      0.0000  0.0000  0.0000  0.0000  0.0000  0.0000  0.0000  0.0000  0.0000  0.0000  0.0000  0.0000  0.0000  0.0000
  o =  0.0445  v =  0.0000  0.0000  0.0000  0.0000  0.0000  0.0000  0.0000 -0.0000 -0.1654  0.0031  0.0000  0.9862 -0.0005  0.0000      0.0000  0.0000  0.0000  0.0000  0.0000  0.0000  0.0000  0.0000  0.0000  0.0000  0.0000  0.0000  0.0000  0.0000
  o =  0.0463  v =  0.0000  0.0000  0.0000  0.0000  0.0000  0.0000  0.0000 -0.0000  0.0000  0.0000  0.0000 -0.0000  0.0000  1.0000      0.0000  0.0000  0.0000  0.0000  0.0000  0.0000  0.0000  0.0000  0.0000  0.0000  0.0000  0.0000  0.0000  0.0000
  o =  0.0463  v = -0.0000  0.0000  0.0000  0.0000 -0.0000  0.0000  1.0000  0.0000  0.0000  0.0000  0.0000  0.0000  0.0000  0.0000      0.0000  0.0000  0.0000  0.0000  0.0000  0.0000  0.0000  0.0000  0.0000  0.0000  0.0000  0.0000  0.0000  0.0000
  o =  0.0479  v =  0.0000  0.0000  0.0000  0.0000  0.0000  0.0000  0.0000 -0.0000 -0.9862 -0.0004  0.0000 -0.1654 -0.0027  0.0000      0.0000  0.0000  0.0000  0.0000  0.0000  0.0000  0.0000  0.0000  0.0000  0.0000  0.0000  0.0000  0.0000  0.0000
  o =  0.0479  v = -0.0000 -0.9862 -0.0004  0.0000 -0.1654 -0.0027  0.0000  0.0000  0.0000  0.0000  0.0000  0.0000  0.0000  0.0000      0.0000  0.0000  0.0000  0.0000  0.0000  0.0000  0.0000  0.0000  0.0000  0.0000  0.0000  0.0000  0.0000  0.0000
  o =  0.0479  v =  0.0000 -0.0027  0.1654 -0.0000 -0.0004  0.9862 -0.0000  0.0000  0.0000  0.0000  0.0000  0.0000  0.0000  0.0000      0.0000  0.0000  0.0000  0.0000  0.0000  0.0000  0.0000  0.0000  0.0000  0.0000  0.0000  0.0000  0.0000  0.0000
  o =  0.0479  v =  0.0000  0.0000  0.0000  0.0000  0.0000  0.0000  0.0000  0.0000 -0.0027  0.1654 -0.0000 -0.0004  0.9862 -0.0000      0.0000  0.0000  0.0000  0.0000  0.0000  0.0000  0.0000  0.0000  0.0000  0.0000  0.0000  0.0000  0.0000  0.0000
  o =  0.0588  v = -0.8778  0.0000  0.0000 -0.4790  0.0000  0.0000 -0.0000  0.0000  0.0000  0.0000  0.0000  0.0000  0.0000  0.0000      0.0000  0.0000  0.0000  0.0000  0.0000  0.0000  0.0000  0.0000  0.0000  0.0000  0.0000  0.0000  0.0000  0.0000
  o =  0.0588  v =  0.0000  0.0000  0.0000  0.0000  0.0000  0.0000  0.0000 -0.8778  0.0000  0.0000 -0.4790  0.0000  0.0000 -0.0000      0.0000  0.0000  0.0000  0.0000  0.0000  0.0000  0.0000  0.0000  0.0000  0.0000  0.0000  0.0000  0.0000  0.0000
     EDDAV:  cpu time    0.1762: real time    0.1766
       DOS:  cpu time    0.0002: real time    0.0002
    CHARGE:  cpu time    0.0539: real time    0.0540
    MIXING:  cpu time    0.0016: real time    0.0017
    --------------------------------------------
      LOOP:  cpu time    0.6612: real time    0.6626

 eigenvalue-minimisations  :   480
 total energy-change (2. order) : 0.5794244E+01  (-0.8683814E+01)
 number of electron      24.0000000 magnetization 
 augmentation part        0.7790791 magnetization 

 Broyden mixing:
  rms(total) = 0.17410E+01    rms(broyden)= 0.17399E+01
  rms(prec ) = 0.18080E+01
  weight for this iteration     100.00

 eigenvalues of (default mixing * dielectric matrix)
  average eigenvalue GAMMA=   0.6175
  0.6175

 Free energy of the ion-electron system (eV)
  ---------------------------------------------------
  alpha Z        PSCENC =        12.07679559
  Ewald energy   TEWEN  =      9065.64322770
  -Hartree energ DENC   =    -10689.42746595
  -exchange      EXHF   =         0.00000000
  -V(xc)+E(xc)   XCENC  =        62.47007047
  PAW double counting   =      1662.40025400    -1640.76352242
  entropy T*S    EENTRO =         0.00000000
  eigenvalues    EBANDS =      -425.36019095
  atomic energy  EATOM  =      1927.56740593
  Solvation  Ediel_sol  =         0.00000000
  ---------------------------------------------------
  free energy    TOTEN  =       -25.39342561 eV

  energy without entropy =      -25.39342561  energy(sigma->0) =      -25.39342561


--------------------------------------------------------------------------------------------------------




--------------------------------------- Iteration      1(   7)  ---------------------------------------


    POTLOK:  cpu time    0.0202: real time    0.0202
    SETDIJ:  cpu time    0.4012: real time    0.4019
atom =   1  type =  1  l = 3
 
 onsite density matrix
 
spin component  1
 
  0.1248  0.0000 -0.0000  0.0357 -0.0000 -0.0000 -0.0000
  0.0000  0.0912  0.0000  0.0000  0.0031 -0.0000 -0.0000
 -0.0000  0.0000  0.0623 -0.0000  0.0000  0.0031 -0.0000
  0.0357  0.0000 -0.0000  0.0583 -0.0000 -0.0000  0.0000
 -0.0000  0.0031  0.0000 -0.0000  0.0623  0.0000 -0.0000
 -0.0000 -0.0000  0.0031 -0.0000  0.0000  0.0912 -0.0000
 -0.0000 -0.0000 -0.0000  0.0000 -0.0000 -0.0000  0.0605
 
spin component  2
 
  0.1248  0.0000 -0.0000  0.0357 -0.0000 -0.0000 -0.0000
  0.0000  0.0912  0.0000  0.0000  0.0031 -0.0000 -0.0000
 -0.0000  0.0000  0.0623 -0.0000  0.0000  0.0031 -0.0000
  0.0357  0.0000 -0.0000  0.0583 -0.0000 -0.0000  0.0000
 -0.0000  0.0031  0.0000 -0.0000  0.0623  0.0000 -0.0000
 -0.0000 -0.0000  0.0031 -0.0000  0.0000  0.0912 -0.0000
 -0.0000 -0.0000 -0.0000  0.0000 -0.0000 -0.0000  0.0605
 
 occupancies and eigenvectors
 
  o =  0.0428  v = -0.3991 -0.0000 -0.0000  0.9169 -0.0000  0.0000 -0.0000  0.0000  0.0000  0.0000  0.0000  0.0000  0.0000  0.0000      0.0000  0.0000  0.0000  0.0000  0.0000  0.0000  0.0000  0.0000  0.0000  0.0000  0.0000  0.0000  0.0000  0.0000
  o =  0.0428  v =  0.0000  0.0000  0.0000  0.0000  0.0000  0.0000  0.0000 -0.3991 -0.0000 -0.0000  0.9169 -0.0000  0.0000 -0.0000      0.0000  0.0000  0.0000  0.0000  0.0000  0.0000  0.0000  0.0000  0.0000  0.0000  0.0000  0.0000  0.0000  0.0000
  o =  0.0605  v = -0.0000 -0.0000 -0.0000  0.0000  0.0000  0.0000  1.0000  0.0000  0.0000  0.0000  0.0000  0.0000  0.0000  0.0000      0.0000  0.0000  0.0000  0.0000  0.0000  0.0000  0.0000  0.0000  0.0000  0.0000  0.0000  0.0000  0.0000  0.0000
  o =  0.0605  v =  0.0000  0.0000  0.0000  0.0000  0.0000  0.0000  0.0000 -0.0000 -0.0000 -0.0000  0.0000  0.0000  0.0000  1.0000      0.0000  0.0000  0.0000  0.0000  0.0000  0.0000  0.0000  0.0000  0.0000  0.0000  0.0000  0.0000  0.0000  0.0000
  o =  0.0620  v =  0.0000  0.0000  0.9942  0.0000 -0.0002 -0.1073  0.0000  0.0000  0.0000  0.0000  0.0000  0.0000  0.0000  0.0000      0.0000  0.0000  0.0000  0.0000  0.0000  0.0000  0.0000  0.0000  0.0000  0.0000  0.0000  0.0000  0.0000  0.0000
  o =  0.0620  v =  0.0000  0.0000  0.0000  0.0000  0.0000  0.0000  0.0000  0.0000  0.0000  0.9942  0.0000 -0.0002 -0.1073  0.0000      0.0000  0.0000  0.0000  0.0000  0.0000  0.0000  0.0000  0.0000  0.0000  0.0000  0.0000  0.0000  0.0000  0.0000
  o =  0.0620  v = -0.0000  0.1073 -0.0002 -0.0000 -0.9942  0.0000  0.0000  0.0000  0.0000  0.0000  0.0000  0.0000  0.0000  0.0000      0.0000  0.0000  0.0000  0.0000  0.0000  0.0000  0.0000  0.0000  0.0000  0.0000  0.0000  0.0000  0.0000  0.0000
  o =  0.0620  v =  0.0000  0.0000  0.0000  0.0000  0.0000  0.0000  0.0000 -0.0000  0.1073 -0.0002 -0.0000 -0.9942  0.0000  0.0000      0.0000  0.0000  0.0000  0.0000  0.0000  0.0000  0.0000  0.0000  0.0000  0.0000  0.0000  0.0000  0.0000  0.0000
  o =  0.0915  v =  0.0000  0.0000  0.0000  0.0000  0.0000  0.0000  0.0000 -0.0000 -0.0084 -0.1073  0.0000 -0.0009 -0.9942  0.0000      0.0000  0.0000  0.0000  0.0000  0.0000  0.0000  0.0000  0.0000  0.0000  0.0000  0.0000  0.0000  0.0000  0.0000
  o =  0.0915  v = -0.0000 -0.0084 -0.1073  0.0000 -0.0009 -0.9942  0.0000  0.0000  0.0000  0.0000  0.0000  0.0000  0.0000  0.0000      0.0000  0.0000  0.0000  0.0000  0.0000  0.0000  0.0000  0.0000  0.0000  0.0000  0.0000  0.0000  0.0000  0.0000
  o =  0.0915  v =  0.0000 -0.9942  0.0009 -0.0000 -0.1073  0.0084  0.0000  0.0000  0.0000  0.0000  0.0000  0.0000  0.0000  0.0000      0.0000  0.0000  0.0000  0.0000  0.0000  0.0000  0.0000  0.0000  0.0000  0.0000  0.0000  0.0000  0.0000  0.0000
  o =  0.0915  v =  0.0000  0.0000  0.0000  0.0000  0.0000  0.0000  0.0000  0.0000 -0.9942  0.0009 -0.0000 -0.1073  0.0084  0.0000      0.0000  0.0000  0.0000  0.0000  0.0000  0.0000  0.0000  0.0000  0.0000  0.0000  0.0000  0.0000  0.0000  0.0000
  o =  0.1404  v = -0.9169 -0.0000  0.0000 -0.3991  0.0000  0.0000  0.0000  0.0000  0.0000  0.0000  0.0000  0.0000  0.0000  0.0000      0.0000  0.0000  0.0000  0.0000  0.0000  0.0000  0.0000  0.0000  0.0000  0.0000  0.0000  0.0000  0.0000  0.0000
  o =  0.1404  v =  0.0000  0.0000  0.0000  0.0000  0.0000  0.0000  0.0000 -0.9169 -0.0000  0.0000 -0.3991  0.0000  0.0000  0.0000      0.0000  0.0000  0.0000  0.0000  0.0000  0.0000  0.0000  0.0000  0.0000  0.0000  0.0000  0.0000  0.0000  0.0000
     EDDAV:  cpu time    0.1757: real time    0.1761
       DOS:  cpu time    0.0002: real time    0.0002
    CHARGE:  cpu time    0.0535: real time    0.0536
    MIXING:  cpu time    0.0025: real time    0.0025
    --------------------------------------------
      LOOP:  cpu time    0.6533: real time    0.6545

 eigenvalue-minimisations  :   480
 total energy-change (2. order) :-0.7564509E+00  (-0.1385032E+02)
 number of electron      24.0000000 magnetization 
 augmentation part       -0.5025869 magnetization 

 Broyden mixing:
  rms(total) = 0.16079E+01    rms(broyden)= 0.16075E+01
  rms(prec ) = 0.16268E+01
  weight for this iteration     100.00

 eigenvalues of (default mixing * dielectric matrix)
  average eigenvalue GAMMA=   0.7391
  1.1444  0.3337

 Free energy of the ion-electron system (eV)
  ---------------------------------------------------
  alpha Z        PSCENC =        12.07679559
  Ewald energy   TEWEN  =      9065.64322770
  -Hartree energ DENC   =    -10692.83578608
  -exchange      EXHF   =         0.00000000
  -V(xc)+E(xc)   XCENC  =        61.33115923
  PAW double counting   =      1702.31548307    -1682.68816866
  entropy T*S    EENTRO =         0.00000000
  eigenvalues    EBANDS =      -419.55999327
  atomic energy  EATOM  =      1927.56740593
  Solvation  Ediel_sol  =         0.00000000
  ---------------------------------------------------
  free energy    TOTEN  =       -26.14987648 eV

  energy without entropy =      -26.14987648  energy(sigma->0) =      -26.14987648


--------------------------------------------------------------------------------------------------------




--------------------------------------- Iteration      1(   8)  ---------------------------------------


    POTLOK:  cpu time    0.0215: real time    0.0216
    SETDIJ:  cpu time    0.3946: real time    0.3953
atom =   1  type =  1  l = 3
 
 onsite density matrix
 
spin component  1
 
  0.1312  0.0000 -0.0000  0.0440 -0.0000 -0.0000 -0.0000
  0.0000  0.0896  0.0000 -0.0000  0.0038 -0.0000 -0.0000
 -0.0000  0.0000  0.0551 -0.0000  0.0000  0.0038 -0.0000
  0.0440 -0.0000 -0.0000  0.0514 -0.0000 -0.0000 -0.0000
 -0.0000  0.0038  0.0000 -0.0000  0.0551  0.0000 -0.0000
 -0.0000 -0.0000  0.0038 -0.0000  0.0000  0.0896 -0.0000
 -0.0000 -0.0000 -0.0000 -0.0000 -0.0000 -0.0000  0.0541
 
spin component  2
 
  0.1312  0.0000 -0.0000  0.0440 -0.0000 -0.0000 -0.0000
  0.0000  0.0896  0.0000 -0.0000  0.0038 -0.0000 -0.0000
 -0.0000  0.0000  0.0551 -0.0000  0.0000  0.0038 -0.0000
  0.0440 -0.0000 -0.0000  0.0514 -0.0000 -0.0000 -0.0000
 -0.0000  0.0038  0.0000 -0.0000  0.0551  0.0000 -0.0000
 -0.0000 -0.0000  0.0038 -0.0000  0.0000  0.0896 -0.0000
 -0.0000 -0.0000 -0.0000 -0.0000 -0.0000 -0.0000  0.0541
 
 occupancies and eigenvectors
 
  o =  0.0319  v = -0.4055 -0.0000 -0.0000  0.9141 -0.0000  0.0000 -0.0000  0.0000  0.0000  0.0000  0.0000  0.0000  0.0000  0.0000      0.0000  0.0000  0.0000  0.0000  0.0000  0.0000  0.0000  0.0000  0.0000  0.0000  0.0000  0.0000  0.0000  0.0000
  o =  0.0319  v =  0.0000  0.0000  0.0000  0.0000  0.0000  0.0000  0.0000 -0.4055 -0.0000 -0.0000  0.9141 -0.0000  0.0000 -0.0000      0.0000  0.0000  0.0000  0.0000  0.0000  0.0000  0.0000  0.0000  0.0000  0.0000  0.0000  0.0000  0.0000  0.0000
  o =  0.0541  v = -0.0000  0.0000 -0.0000 -0.0000 -0.0000 -0.0000 -1.0000  0.0000  0.0000  0.0000  0.0000  0.0000  0.0000  0.0000      0.0000  0.0000  0.0000  0.0000  0.0000  0.0000  0.0000  0.0000  0.0000  0.0000  0.0000  0.0000  0.0000  0.0000
  o =  0.0541  v =  0.0000  0.0000  0.0000  0.0000  0.0000  0.0000  0.0000 -0.0000  0.0000 -0.0000 -0.0000 -0.0000 -0.0000 -1.0000      0.0000  0.0000  0.0000  0.0000  0.0000  0.0000  0.0000  0.0000  0.0000  0.0000  0.0000  0.0000  0.0000  0.0000
  o =  0.0547  v = -0.0000 -0.0000 -0.9941 -0.0000  0.0002  0.1085 -0.0000  0.0000  0.0000  0.0000  0.0000  0.0000  0.0000  0.0000      0.0000  0.0000  0.0000  0.0000  0.0000  0.0000  0.0000  0.0000  0.0000  0.0000  0.0000  0.0000  0.0000  0.0000
  o =  0.0547  v =  0.0000  0.0000  0.0000  0.0000  0.0000  0.0000  0.0000 -0.0000 -0.0000 -0.9941 -0.0000  0.0002  0.1085 -0.0000      0.0000  0.0000  0.0000  0.0000  0.0000  0.0000  0.0000  0.0000  0.0000  0.0000  0.0000  0.0000  0.0000  0.0000
  o =  0.0547  v =  0.0000 -0.1085  0.0002  0.0000  0.9941 -0.0000 -0.0000  0.0000  0.0000  0.0000  0.0000  0.0000  0.0000  0.0000      0.0000  0.0000  0.0000  0.0000  0.0000  0.0000  0.0000  0.0000  0.0000  0.0000  0.0000  0.0000  0.0000  0.0000
  o =  0.0547  v =  0.0000  0.0000  0.0000  0.0000  0.0000  0.0000  0.0000  0.0000 -0.1085  0.0002  0.0000  0.9941 -0.0000 -0.0000      0.0000  0.0000  0.0000  0.0000  0.0000  0.0000  0.0000  0.0000  0.0000  0.0000  0.0000  0.0000  0.0000  0.0000
  o =  0.0900  v =  0.0000  0.0000  0.0000  0.0000  0.0000  0.0000  0.0000 -0.0000 -0.0041 -0.1085  0.0000 -0.0005 -0.9941  0.0000      0.0000  0.0000  0.0000  0.0000  0.0000  0.0000  0.0000  0.0000  0.0000  0.0000  0.0000  0.0000  0.0000  0.0000
  o =  0.0900  v = -0.0000 -0.0041 -0.1085  0.0000 -0.0005 -0.9941  0.0000  0.0000  0.0000  0.0000  0.0000  0.0000  0.0000  0.0000      0.0000  0.0000  0.0000  0.0000  0.0000  0.0000  0.0000  0.0000  0.0000  0.0000  0.0000  0.0000  0.0000  0.0000
  o =  0.0900  v = -0.0000  0.9941 -0.0005  0.0000  0.1085 -0.0041 -0.0000  0.0000  0.0000  0.0000  0.0000  0.0000  0.0000  0.0000      0.0000  0.0000  0.0000  0.0000  0.0000  0.0000  0.0000  0.0000  0.0000  0.0000  0.0000  0.0000  0.0000  0.0000
  o =  0.0900  v =  0.0000  0.0000  0.0000  0.0000  0.0000  0.0000  0.0000 -0.0000  0.9941 -0.0005  0.0000  0.1085 -0.0041 -0.0000      0.0000  0.0000  0.0000  0.0000  0.0000  0.0000  0.0000  0.0000  0.0000  0.0000  0.0000  0.0000  0.0000  0.0000
  o =  0.1507  v = -0.9141  0.0000  0.0000 -0.4055  0.0000  0.0000  0.0000  0.0000  0.0000  0.0000  0.0000  0.0000  0.0000  0.0000      0.0000  0.0000  0.0000  0.0000  0.0000  0.0000  0.0000  0.0000  0.0000  0.0000  0.0000  0.0000  0.0000  0.0000
  o =  0.1507  v =  0.0000  0.0000  0.0000  0.0000  0.0000  0.0000  0.0000 -0.9141  0.0000  0.0000 -0.4055  0.0000  0.0000  0.0000      0.0000  0.0000  0.0000  0.0000  0.0000  0.0000  0.0000  0.0000  0.0000  0.0000  0.0000  0.0000  0.0000  0.0000
     EDDAV:  cpu time    0.1558: real time    0.1561
       DOS:  cpu time    0.0002: real time    0.0001
    CHARGE:  cpu time    0.0545: real time    0.0547
    MIXING:  cpu time    0.0016: real time    0.0016
    --------------------------------------------
      LOOP:  cpu time    0.6281: real time    0.6294

 eigenvalue-minimisations  :   432
 total energy-change (2. order) : 0.9424980E+00  (-0.3121020E+00)
 number of electron      24.0000000 magnetization 
 augmentation part       -0.4655080 magnetization 

 Broyden mixing:
  rms(total) = 0.12456E+01    rms(broyden)= 0.12456E+01
  rms(prec ) = 0.12656E+01
  weight for this iteration     100.00

 eigenvalues of (default mixing * dielectric matrix)
  average eigenvalue GAMMA=   1.3192
  0.4502  0.7796  2.7278

 Free energy of the ion-electron system (eV)
  ---------------------------------------------------
  alpha Z        PSCENC =        12.07679559
  Ewald energy   TEWEN  =      9065.64322770
  -Hartree energ DENC   =    -10703.42515513
  -exchange      EXHF   =         0.00000000
  -V(xc)+E(xc)   XCENC  =        61.60689510
  PAW double counting   =      1751.56841217    -1731.52841426
  entropy T*S    EENTRO =         0.00000000
  eigenvalues    EBANDS =      -408.71654558
  atomic energy  EATOM  =      1927.56740593
  Solvation  Ediel_sol  =         0.00000000
  ---------------------------------------------------
  free energy    TOTEN  =       -25.20737846 eV

  energy without entropy =      -25.20737846  energy(sigma->0) =      -25.20737846


--------------------------------------------------------------------------------------------------------




--------------------------------------- Iteration      1(   9)  ---------------------------------------


    POTLOK:  cpu time    0.0210: real time    0.0210
    SETDIJ:  cpu time    0.4070: real time    0.4078
atom =   1  type =  1  l = 3
 
 onsite density matrix
 
spin component  1
 
  0.1356  0.0000 -0.0000  0.0572  0.0000 -0.0000 -0.0000
  0.0000  0.0805 -0.0000  0.0000  0.0046 -0.0000 -0.0000
 -0.0000 -0.0000  0.0394 -0.0000  0.0000  0.0046  0.0000
  0.0572  0.0000 -0.0000  0.0395 -0.0000 -0.0000  0.0000
  0.0000  0.0046  0.0000 -0.0000  0.0394  0.0000 -0.0000
 -0.0000 -0.0000  0.0046 -0.0000  0.0000  0.0805 -0.0000
 -0.0000 -0.0000  0.0000  0.0000 -0.0000 -0.0000  0.0398
 
spin component  2
 
  0.1356  0.0000 -0.0000  0.0572  0.0000 -0.0000 -0.0000
  0.0000  0.0805 -0.0000  0.0000  0.0046 -0.0000 -0.0000
 -0.0000 -0.0000  0.0394 -0.0000  0.0000  0.0046  0.0000
  0.0572  0.0000 -0.0000  0.0395 -0.0000 -0.0000  0.0000
  0.0000  0.0046  0.0000 -0.0000  0.0394  0.0000 -0.0000
 -0.0000 -0.0000  0.0046 -0.0000  0.0000  0.0805 -0.0000
 -0.0000 -0.0000  0.0000  0.0000 -0.0000 -0.0000  0.0398
 
 occupancies and eigenvectors
 
  o =  0.0128  v = -0.4224 -0.0000 -0.0000  0.9064  0.0000  0.0000 -0.0000  0.0000  0.0000  0.0000  0.0000  0.0000  0.0000  0.0000      0.0000  0.0000  0.0000  0.0000  0.0000  0.0000  0.0000  0.0000  0.0000  0.0000  0.0000  0.0000  0.0000  0.0000
  o =  0.0128  v =  0.0000  0.0000  0.0000  0.0000  0.0000  0.0000  0.0000 -0.4224 -0.0000 -0.0000  0.9064  0.0000  0.0000 -0.0000      0.0000  0.0000  0.0000  0.0000  0.0000  0.0000  0.0000  0.0000  0.0000  0.0000  0.0000  0.0000  0.0000  0.0000
  o =  0.0389  v = -0.0000 -0.0001 -0.9938 -0.0000  0.0006  0.1110  0.0000  0.0000  0.0000  0.0000  0.0000  0.0000  0.0000  0.0000      0.0000  0.0000  0.0000  0.0000  0.0000  0.0000  0.0000  0.0000  0.0000  0.0000  0.0000  0.0000  0.0000  0.0000
  o =  0.0389  v =  0.0000  0.0000  0.0000  0.0000  0.0000  0.0000  0.0000 -0.0000 -0.0001 -0.9938 -0.0000  0.0006  0.1110  0.0000      0.0000  0.0000  0.0000  0.0000  0.0000  0.0000  0.0000  0.0000  0.0000  0.0000  0.0000  0.0000  0.0000  0.0000
  o =  0.0389  v = -0.0000  0.1110 -0.0006  0.0000 -0.9938  0.0001 -0.0000  0.0000  0.0000  0.0000  0.0000  0.0000  0.0000  0.0000      0.0000  0.0000  0.0000  0.0000  0.0000  0.0000  0.0000  0.0000  0.0000  0.0000  0.0000  0.0000  0.0000  0.0000
  o =  0.0389  v =  0.0000  0.0000  0.0000  0.0000  0.0000  0.0000  0.0000 -0.0000  0.1110 -0.0006  0.0000 -0.9938  0.0001 -0.0000      0.0000  0.0000  0.0000  0.0000  0.0000  0.0000  0.0000  0.0000  0.0000  0.0000  0.0000  0.0000  0.0000  0.0000
  o =  0.0398  v =  0.0000  0.0000  0.0000  0.0000  0.0000  0.0000  0.0000  0.0000 -0.0000 -0.0000 -0.0000  0.0000 -0.0000 -1.0000      0.0000  0.0000  0.0000  0.0000  0.0000  0.0000  0.0000  0.0000  0.0000  0.0000  0.0000  0.0000  0.0000  0.0000
  o =  0.0398  v =  0.0000 -0.0000 -0.0000 -0.0000  0.0000 -0.0000 -1.0000  0.0000  0.0000  0.0000  0.0000  0.0000  0.0000  0.0000      0.0000  0.0000  0.0000  0.0000  0.0000  0.0000  0.0000  0.0000  0.0000  0.0000  0.0000  0.0000  0.0000  0.0000
  o =  0.0810  v =  0.0000  0.0000  0.0000  0.0000  0.0000  0.0000  0.0000 -0.0000 -0.0006 -0.1110  0.0000 -0.0001 -0.9938  0.0000      0.0000  0.0000  0.0000  0.0000  0.0000  0.0000  0.0000  0.0000  0.0000  0.0000  0.0000  0.0000  0.0000  0.0000
  o =  0.0810  v = -0.0000 -0.0006 -0.1110  0.0000 -0.0001 -0.9938  0.0000  0.0000  0.0000  0.0000  0.0000  0.0000  0.0000  0.0000      0.0000  0.0000  0.0000  0.0000  0.0000  0.0000  0.0000  0.0000  0.0000  0.0000  0.0000  0.0000  0.0000  0.0000
  o =  0.0810  v =  0.0000  0.0000  0.0000  0.0000  0.0000  0.0000  0.0000  0.0000 -0.9938  0.0001 -0.0000 -0.1110  0.0006  0.0000      0.0000  0.0000  0.0000  0.0000  0.0000  0.0000  0.0000  0.0000  0.0000  0.0000  0.0000  0.0000  0.0000  0.0000
  o =  0.0810  v =  0.0000 -0.9938  0.0001 -0.0000 -0.1110  0.0006  0.0000  0.0000  0.0000  0.0000  0.0000  0.0000  0.0000  0.0000      0.0000  0.0000  0.0000  0.0000  0.0000  0.0000  0.0000  0.0000  0.0000  0.0000  0.0000  0.0000  0.0000  0.0000
  o =  0.1623  v = -0.9064 -0.0000  0.0000 -0.4224 -0.0000  0.0000 -0.0000  0.0000  0.0000  0.0000  0.0000  0.0000  0.0000  0.0000      0.0000  0.0000  0.0000  0.0000  0.0000  0.0000  0.0000  0.0000  0.0000  0.0000  0.0000  0.0000  0.0000  0.0000
  o =  0.1623  v =  0.0000  0.0000  0.0000  0.0000  0.0000  0.0000  0.0000 -0.9064 -0.0000  0.0000 -0.4224 -0.0000  0.0000 -0.0000      0.0000  0.0000  0.0000  0.0000  0.0000  0.0000  0.0000  0.0000  0.0000  0.0000  0.0000  0.0000  0.0000  0.0000
     EDDAV:  cpu time    0.1754: real time    0.1758
       DOS:  cpu time    0.0002: real time    0.0002
    CHARGE:  cpu time    0.0538: real time    0.0539
    MIXING:  cpu time    0.0015: real time    0.0015
    --------------------------------------------
      LOOP:  cpu time    0.6589: real time    0.6602

 eigenvalue-minimisations  :   504
 total energy-change (2. order) : 0.1889210E+01  (-0.1141264E+01)
 number of electron      24.0000000 magnetization 
 augmentation part       -0.4222340 magnetization 

 Broyden mixing:
  rms(total) = 0.24735E+00    rms(broyden)= 0.24681E+00
  rms(prec ) = 0.25090E+00
  weight for this iteration     100.00

 eigenvalues of (default mixing * dielectric matrix)
  average eigenvalue GAMMA=   1.0530
  1.8771  1.4011  0.4669  0.4669

 Free energy of the ion-electron system (eV)
  ---------------------------------------------------
  alpha Z        PSCENC =        12.07679559
  Ewald energy   TEWEN  =      9065.64322770
  -Hartree energ DENC   =    -10731.65298843
  -exchange      EXHF   =         0.00000000
  -V(xc)+E(xc)   XCENC  =        62.70077137
  PAW double counting   =      1825.26546636    -1804.26717939
  entropy T*S    EENTRO =         0.00000000
  eigenvalues    EBANDS =      -380.65166805
  atomic energy  EATOM  =      1927.56740593
  Solvation  Ediel_sol  =         0.00000000
  ---------------------------------------------------
  free energy    TOTEN  =       -23.31816890 eV

  energy without entropy =      -23.31816890  energy(sigma->0) =      -23.31816890


--------------------------------------------------------------------------------------------------------




--------------------------------------- Iteration      1(  10)  ---------------------------------------


    POTLOK:  cpu time    0.0206: real time    0.0206
    SETDIJ:  cpu time    0.4078: real time    0.4086
atom =   1  type =  1  l = 3
 
 onsite density matrix
 
spin component  1
 
  0.1281  0.0000 -0.0000  0.0552  0.0000 -0.0000  0.0000
  0.0000  0.0748 -0.0000  0.0000  0.0042 -0.0000 -0.0000
 -0.0000 -0.0000  0.0380 -0.0000  0.0000  0.0042  0.0000
  0.0552  0.0000 -0.0000  0.0425 -0.0000 -0.0000 -0.0000
  0.0000  0.0042  0.0000 -0.0000  0.0380  0.0000 -0.0000
 -0.0000 -0.0000  0.0042 -0.0000  0.0000  0.0748 -0.0000
  0.0000 -0.0000  0.0000 -0.0000 -0.0000 -0.0000  0.0396
 
spin component  2
 
  0.1281  0.0000 -0.0000  0.0552  0.0000 -0.0000  0.0000
  0.0000  0.0748 -0.0000  0.0000  0.0042 -0.0000 -0.0000
 -0.0000 -0.0000  0.0380 -0.0000  0.0000  0.0042  0.0000
  0.0552  0.0000 -0.0000  0.0425 -0.0000 -0.0000 -0.0000
  0.0000  0.0042  0.0000 -0.0000  0.0380  0.0000 -0.0000
 -0.0000 -0.0000  0.0042 -0.0000  0.0000  0.0748 -0.0000
  0.0000 -0.0000  0.0000 -0.0000 -0.0000 -0.0000  0.0396
 
 occupancies and eigenvectors
 
  o =  0.0155  v = -0.4401 -0.0000 -0.0000  0.8980  0.0000  0.0000  0.0000  0.0000  0.0000  0.0000  0.0000  0.0000  0.0000  0.0000      0.0000  0.0000  0.0000  0.0000  0.0000  0.0000  0.0000  0.0000  0.0000  0.0000  0.0000  0.0000  0.0000  0.0000
  o =  0.0155  v =  0.0000  0.0000  0.0000  0.0000  0.0000  0.0000  0.0000 -0.4401 -0.0000 -0.0000  0.8980  0.0000  0.0000  0.0000      0.0000  0.0000  0.0000  0.0000  0.0000  0.0000  0.0000  0.0000  0.0000  0.0000  0.0000  0.0000  0.0000  0.0000
  o =  0.0375  v =  0.0000  0.0001  0.9936  0.0000 -0.0006 -0.1132 -0.0000  0.0000  0.0000  0.0000  0.0000  0.0000  0.0000  0.0000      0.0000  0.0000  0.0000  0.0000  0.0000  0.0000  0.0000  0.0000  0.0000  0.0000  0.0000  0.0000  0.0000  0.0000
  o =  0.0375  v =  0.0000  0.0000  0.0000  0.0000  0.0000  0.0000  0.0000  0.0000  0.0001  0.9936  0.0000 -0.0006 -0.1132 -0.0000      0.0000  0.0000  0.0000  0.0000  0.0000  0.0000  0.0000  0.0000  0.0000  0.0000  0.0000  0.0000  0.0000  0.0000
  o =  0.0375  v = -0.0000  0.1132 -0.0006  0.0000 -0.9936  0.0001 -0.0000  0.0000  0.0000  0.0000  0.0000  0.0000  0.0000  0.0000      0.0000  0.0000  0.0000  0.0000  0.0000  0.0000  0.0000  0.0000  0.0000  0.0000  0.0000  0.0000  0.0000  0.0000
  o =  0.0375  v =  0.0000  0.0000  0.0000  0.0000  0.0000  0.0000  0.0000 -0.0000  0.1132 -0.0006  0.0000 -0.9936  0.0001 -0.0000      0.0000  0.0000  0.0000  0.0000  0.0000  0.0000  0.0000  0.0000  0.0000  0.0000  0.0000  0.0000  0.0000  0.0000
  o =  0.0396  v =  0.0000  0.0000  0.0000  0.0000  0.0000  0.0000  0.0000  0.0000  0.0000  0.0000 -0.0000 -0.0000  0.0000  1.0000      0.0000  0.0000  0.0000  0.0000  0.0000  0.0000  0.0000  0.0000  0.0000  0.0000  0.0000  0.0000  0.0000  0.0000
  o =  0.0396  v =  0.0000  0.0000  0.0000 -0.0000 -0.0000  0.0000  1.0000  0.0000  0.0000  0.0000  0.0000  0.0000  0.0000  0.0000      0.0000  0.0000  0.0000  0.0000  0.0000  0.0000  0.0000  0.0000  0.0000  0.0000  0.0000  0.0000  0.0000  0.0000
  o =  0.0753  v =  0.0000  0.0000  0.0000  0.0000  0.0000  0.0000  0.0000 -0.0000 -0.0019 -0.1132  0.0000 -0.0002 -0.9936  0.0000      0.0000  0.0000  0.0000  0.0000  0.0000  0.0000  0.0000  0.0000  0.0000  0.0000  0.0000  0.0000  0.0000  0.0000
  o =  0.0753  v = -0.0000 -0.0019 -0.1132  0.0000 -0.0002 -0.9936  0.0000  0.0000  0.0000  0.0000  0.0000  0.0000  0.0000  0.0000      0.0000  0.0000  0.0000  0.0000  0.0000  0.0000  0.0000  0.0000  0.0000  0.0000  0.0000  0.0000  0.0000  0.0000
  o =  0.0753  v =  0.0000  0.0000  0.0000  0.0000  0.0000  0.0000  0.0000  0.0000 -0.9936  0.0002 -0.0000 -0.1132  0.0019  0.0000      0.0000  0.0000  0.0000  0.0000  0.0000  0.0000  0.0000  0.0000  0.0000  0.0000  0.0000  0.0000  0.0000  0.0000
  o =  0.0753  v =  0.0000 -0.9936  0.0002 -0.0000 -0.1132  0.0019  0.0000  0.0000  0.0000  0.0000  0.0000  0.0000  0.0000  0.0000      0.0000  0.0000  0.0000  0.0000  0.0000  0.0000  0.0000  0.0000  0.0000  0.0000  0.0000  0.0000  0.0000  0.0000
  o =  0.1552  v = -0.8980 -0.0000  0.0000 -0.4401 -0.0000  0.0000 -0.0000  0.0000  0.0000  0.0000  0.0000  0.0000  0.0000  0.0000      0.0000  0.0000  0.0000  0.0000  0.0000  0.0000  0.0000  0.0000  0.0000  0.0000  0.0000  0.0000  0.0000  0.0000
  o =  0.1552  v =  0.0000  0.0000  0.0000  0.0000  0.0000  0.0000  0.0000 -0.8980 -0.0000  0.0000 -0.4401 -0.0000  0.0000 -0.0000      0.0000  0.0000  0.0000  0.0000  0.0000  0.0000  0.0000  0.0000  0.0000  0.0000  0.0000  0.0000  0.0000  0.0000
     EDDAV:  cpu time    0.1919: real time    0.1924
       DOS:  cpu time    0.0002: real time    0.0002
    CHARGE:  cpu time    0.0552: real time    0.0553
    MIXING:  cpu time    0.0019: real time    0.0019
    --------------------------------------------
      LOOP:  cpu time    0.6775: real time    0.6789

 eigenvalue-minimisations  :   552
 total energy-change (2. order) : 0.7848207E-02  (-0.6200125E-01)
 number of electron      24.0000000 magnetization 
 augmentation part       -0.4839142 magnetization 

 Broyden mixing:
  rms(total) = 0.12635E+00    rms(broyden)= 0.12634E+00
  rms(prec ) = 0.12982E+00
  weight for this iteration     100.00

 eigenvalues of (default mixing * dielectric matrix)
  average eigenvalue GAMMA=   1.0385
  1.9345  1.2532  0.4566  0.7742  0.7742

 Free energy of the ion-electron system (eV)
  ---------------------------------------------------
  alpha Z        PSCENC =        12.07679559
  Ewald energy   TEWEN  =      9065.64322770
  -Hartree energ DENC   =    -10725.58412762
  -exchange      EXHF   =         0.00000000
  -V(xc)+E(xc)   XCENC  =        62.43073553
  PAW double counting   =      1796.43380986    -1775.05133683
  entropy T*S    EENTRO =         0.00000000
  eigenvalues    EBANDS =      -386.82683086
  atomic energy  EATOM  =      1927.56740593
  Solvation  Ediel_sol  =         0.00000000
  ---------------------------------------------------
  free energy    TOTEN  =       -23.31032070 eV

  energy without entropy =      -23.31032070  energy(sigma->0) =      -23.31032070


--------------------------------------------------------------------------------------------------------




--------------------------------------- Iteration      1(  11)  ---------------------------------------


    POTLOK:  cpu time    0.0233: real time    0.0234
    SETDIJ:  cpu time    0.4019: real time    0.4026
atom =   1  type =  1  l = 3
 
 onsite density matrix
 
spin component  1
 
  0.1249  0.0000 -0.0000  0.0575  0.0000 -0.0000  0.0000
  0.0000  0.0687 -0.0000  0.0000  0.0042 -0.0000 -0.0000
 -0.0000 -0.0000  0.0334 -0.0000  0.0000  0.0042  0.0000
  0.0575  0.0000 -0.0000  0.0425 -0.0000 -0.0000  0.0000
  0.0000  0.0042  0.0000 -0.0000  0.0334  0.0000 -0.0000
 -0.0000 -0.0000  0.0042 -0.0000  0.0000  0.0687 -0.0000
  0.0000 -0.0000  0.0000  0.0000 -0.0000 -0.0000  0.0368
 
spin component  2
 
  0.1249  0.0000 -0.0000  0.0575  0.0000 -0.0000  0.0000
  0.0000  0.0687 -0.0000  0.0000  0.0042 -0.0000 -0.0000
 -0.0000 -0.0000  0.0334 -0.0000  0.0000  0.0042  0.0000
  0.0575  0.0000 -0.0000  0.0425 -0.0000 -0.0000  0.0000
  0.0000  0.0042  0.0000 -0.0000  0.0334  0.0000 -0.0000
 -0.0000 -0.0000  0.0042 -0.0000  0.0000  0.0687 -0.0000
  0.0000 -0.0000  0.0000  0.0000 -0.0000 -0.0000  0.0368
 
 occupancies and eigenvectors
 
  o =  0.0130  v = -0.4568  0.0000 -0.0000  0.8895  0.0000  0.0000 -0.0000  0.0000  0.0000  0.0000  0.0000  0.0000  0.0000  0.0000      0.0000  0.0000  0.0000  0.0000  0.0000  0.0000  0.0000  0.0000  0.0000  0.0000  0.0000  0.0000  0.0000  0.0000
  o =  0.0130  v =  0.0000  0.0000  0.0000  0.0000  0.0000  0.0000  0.0000 -0.4568  0.0000 -0.0000  0.8895  0.0000  0.0000 -0.0000      0.0000  0.0000  0.0000  0.0000  0.0000  0.0000  0.0000  0.0000  0.0000  0.0000  0.0000  0.0000  0.0000  0.0000
  o =  0.0329  v =  0.0000  0.0001  0.9933  0.0000 -0.0011 -0.1156 -0.0000  0.0000  0.0000  0.0000  0.0000  0.0000  0.0000  0.0000      0.0000  0.0000  0.0000  0.0000  0.0000  0.0000  0.0000  0.0000  0.0000  0.0000  0.0000  0.0000  0.0000  0.0000
  o =  0.0329  v =  0.0000  0.0000  0.0000  0.0000  0.0000  0.0000  0.0000  0.0000  0.0001  0.9933  0.0000 -0.0011 -0.1156 -0.0000      0.0000  0.0000  0.0000  0.0000  0.0000  0.0000  0.0000  0.0000  0.0000  0.0000  0.0000  0.0000  0.0000  0.0000
  o =  0.0329  v = -0.0000  0.1156 -0.0011 -0.0000 -0.9933  0.0001 -0.0000  0.0000  0.0000  0.0000  0.0000  0.0000  0.0000  0.0000      0.0000  0.0000  0.0000  0.0000  0.0000  0.0000  0.0000  0.0000  0.0000  0.0000  0.0000  0.0000  0.0000  0.0000
  o =  0.0329  v =  0.0000  0.0000  0.0000  0.0000  0.0000  0.0000  0.0000 -0.0000  0.1156 -0.0011 -0.0000 -0.9933  0.0001 -0.0000      0.0000  0.0000  0.0000  0.0000  0.0000  0.0000  0.0000  0.0000  0.0000  0.0000  0.0000  0.0000  0.0000  0.0000
  o =  0.0368  v =  0.0000  0.0000  0.0000  0.0000  0.0000  0.0000  0.0000  0.0000 -0.0000 -0.0000  0.0000  0.0000 -0.0000 -1.0000      0.0000  0.0000  0.0000  0.0000  0.0000  0.0000  0.0000  0.0000  0.0000  0.0000  0.0000  0.0000  0.0000  0.0000
  o =  0.0368  v =  0.0000 -0.0000 -0.0000  0.0000  0.0000 -0.0000 -1.0000  0.0000  0.0000  0.0000  0.0000  0.0000  0.0000  0.0000      0.0000  0.0000  0.0000  0.0000  0.0000  0.0000  0.0000  0.0000  0.0000  0.0000  0.0000  0.0000  0.0000  0.0000
  o =  0.0692  v =  0.0000  0.0000  0.0000  0.0000  0.0000  0.0000  0.0000 -0.0000 -0.0050 -0.1156  0.0000 -0.0006 -0.9933  0.0000      0.0000  0.0000  0.0000  0.0000  0.0000  0.0000  0.0000  0.0000  0.0000  0.0000  0.0000  0.0000  0.0000  0.0000
  o =  0.0692  v = -0.0000 -0.0050 -0.1156  0.0000 -0.0006 -0.9933  0.0000  0.0000  0.0000  0.0000  0.0000  0.0000  0.0000  0.0000      0.0000  0.0000  0.0000  0.0000  0.0000  0.0000  0.0000  0.0000  0.0000  0.0000  0.0000  0.0000  0.0000  0.0000
  o =  0.0692  v =  0.0000  0.0000  0.0000  0.0000  0.0000  0.0000  0.0000 -0.0000  0.9933 -0.0006  0.0000  0.1156 -0.0050 -0.0000      0.0000  0.0000  0.0000  0.0000  0.0000  0.0000  0.0000  0.0000  0.0000  0.0000  0.0000  0.0000  0.0000  0.0000
  o =  0.0692  v = -0.0000  0.9933 -0.0006  0.0000  0.1156 -0.0050 -0.0000  0.0000  0.0000  0.0000  0.0000  0.0000  0.0000  0.0000      0.0000  0.0000  0.0000  0.0000  0.0000  0.0000  0.0000  0.0000  0.0000  0.0000  0.0000  0.0000  0.0000  0.0000
  o =  0.1545  v = -0.8895  0.0000  0.0000 -0.4568 -0.0000  0.0000 -0.0000  0.0000  0.0000  0.0000  0.0000  0.0000  0.0000  0.0000      0.0000  0.0000  0.0000  0.0000  0.0000  0.0000  0.0000  0.0000  0.0000  0.0000  0.0000  0.0000  0.0000  0.0000
  o =  0.1545  v =  0.0000  0.0000  0.0000  0.0000  0.0000  0.0000  0.0000 -0.8895  0.0000  0.0000 -0.4568 -0.0000  0.0000 -0.0000      0.0000  0.0000  0.0000  0.0000  0.0000  0.0000  0.0000  0.0000  0.0000  0.0000  0.0000  0.0000  0.0000  0.0000
     EDDAV:  cpu time    0.1780: real time    0.1784
       DOS:  cpu time    0.0001: real time    0.0001
    CHARGE:  cpu time    0.0534: real time    0.0535
    MIXING:  cpu time    0.0018: real time    0.0018
    --------------------------------------------
      LOOP:  cpu time    0.6585: real time    0.6598

 eigenvalue-minimisations  :   480
 total energy-change (2. order) : 0.1129695E-01  (-0.3320721E-01)
 number of electron      24.0000000 magnetization 
 augmentation part       -0.4214600 magnetization 

 Broyden mixing:
  rms(total) = 0.23694E+00    rms(broyden)= 0.23693E+00
  rms(prec ) = 0.24012E+00
  weight for this iteration     100.00

 eigenvalues of (default mixing * dielectric matrix)
  average eigenvalue GAMMA=   1.2938
  2.1617  1.9200  1.9200  0.7472  0.4761  0.5380

 Free energy of the ion-electron system (eV)
  ---------------------------------------------------
  alpha Z        PSCENC =        12.07679559
  Ewald energy   TEWEN  =      9065.64322770
  -Hartree energ DENC   =    -10727.91849353
  -exchange      EXHF   =         0.00000000
  -V(xc)+E(xc)   XCENC  =        62.40796329
  PAW double counting   =      1799.46195106    -1777.42146427
  entropy T*S    EENTRO =         0.00000000
  eigenvalues    EBANDS =      -385.11640953
  atomic energy  EATOM  =      1927.56740593
  Solvation  Ediel_sol  =         0.00000000
  ---------------------------------------------------
  free energy    TOTEN  =       -23.29902374 eV

  energy without entropy =      -23.29902374  energy(sigma->0) =      -23.29902374


--------------------------------------------------------------------------------------------------------




--------------------------------------- Iteration      1(  12)  ---------------------------------------


    POTLOK:  cpu time    0.0204: real time    0.0204
    SETDIJ:  cpu time    0.4002: real time    0.4010
atom =   1  type =  1  l = 3
 
 onsite density matrix
 
spin component  1
 
  0.1310 -0.0000 -0.0000  0.0641  0.0000 -0.0000  0.0000
 -0.0000  0.0690 -0.0000  0.0000  0.0047 -0.0000 -0.0000
 -0.0000 -0.0000  0.0322 -0.0000  0.0000  0.0047 -0.0000
  0.0641  0.0000 -0.0000  0.0466  0.0000 -0.0000 -0.0000
  0.0000  0.0047  0.0000  0.0000  0.0322  0.0000 -0.0000
 -0.0000 -0.0000  0.0047 -0.0000  0.0000  0.0690 -0.0000
  0.0000 -0.0000 -0.0000 -0.0000 -0.0000 -0.0000  0.0370
 
spin component  2
 
  0.1310 -0.0000 -0.0000  0.0641  0.0000 -0.0000  0.0000
 -0.0000  0.0690 -0.0000  0.0000  0.0047 -0.0000 -0.0000
 -0.0000 -0.0000  0.0322 -0.0000  0.0000  0.0047 -0.0000
  0.0641  0.0000 -0.0000  0.0466  0.0000 -0.0000 -0.0000
  0.0000  0.0047  0.0000  0.0000  0.0322  0.0000 -0.0000
 -0.0000 -0.0000  0.0047 -0.0000  0.0000  0.0690 -0.0000
  0.0000 -0.0000 -0.0000 -0.0000 -0.0000 -0.0000  0.0370
 
 occupancies and eigenvectors
 
  o =  0.0120  v =  0.4742  0.0000  0.0000 -0.8804 -0.0000 -0.0000 -0.0000  0.0000  0.0000  0.0000  0.0000  0.0000  0.0000  0.0000      0.0000  0.0000  0.0000  0.0000  0.0000  0.0000  0.0000  0.0000  0.0000  0.0000  0.0000  0.0000  0.0000  0.0000
  o =  0.0120  v =  0.0000  0.0000  0.0000  0.0000  0.0000  0.0000  0.0000  0.4742  0.0000  0.0000 -0.8804 -0.0000 -0.0000 -0.0000      0.0000  0.0000  0.0000  0.0000  0.0000  0.0000  0.0000  0.0000  0.0000  0.0000  0.0000  0.0000  0.0000  0.0000
  o =  0.0316  v = -0.0000 -0.0001 -0.9923 -0.0000  0.0006  0.1235  0.0000  0.0000  0.0000  0.0000  0.0000  0.0000  0.0000  0.0000      0.0000  0.0000  0.0000  0.0000  0.0000  0.0000  0.0000  0.0000  0.0000  0.0000  0.0000  0.0000  0.0000  0.0000
  o =  0.0316  v =  0.0000  0.0000  0.0000  0.0000  0.0000  0.0000  0.0000 -0.0000 -0.0001 -0.9923 -0.0000  0.0006  0.1235  0.0000      0.0000  0.0000  0.0000  0.0000  0.0000  0.0000  0.0000  0.0000  0.0000  0.0000  0.0000  0.0000  0.0000  0.0000
  o =  0.0316  v = -0.0000  0.1235 -0.0006 -0.0000 -0.9923  0.0001 -0.0000  0.0000  0.0000  0.0000  0.0000  0.0000  0.0000  0.0000      0.0000  0.0000  0.0000  0.0000  0.0000  0.0000  0.0000  0.0000  0.0000  0.0000  0.0000  0.0000  0.0000  0.0000
[...]
  eigenvalues    EBANDS =      -361.22026596
  atomic energy  EATOM  =      1927.56740593
  Solvation  Ediel_sol  =         0.00000000
  ---------------------------------------------------
  free energy    TOTEN  =       -23.26895686 eV

  energy without entropy =      -23.26895686  energy(sigma->0) =      -23.26895686


--------------------------------------------------------------------------------------------------------




 average (electrostatic) potential at core
  the test charge radii are     1.1513  0.7215
  (the norm of the test charge is              1.0000)
       1 -89.3519       2 -78.1476       3 -78.1476
 
 
 
 E-fermi :  -5.0873     XC(G=0):  -1.4695     alpha+bet : -1.4830


 k-point     1 :       0.0000    0.0000    0.0000
  band No.  band energies     occupation 
      1     -38.6852      2.00000
      2     -22.2967      2.00000
      3     -20.8883      2.00000
      4     -20.7766      2.00000
      5     -20.7766      2.00000
      6     -18.9179      2.00000
      7      -8.3474      2.00000
      8      -8.3474      2.00000
      9      -6.8495      2.00000
     10      -5.9153      2.00000
     11      -5.2339      2.00000
     12      -5.2339      2.00000
     13      -2.6609      0.00000
     14      -2.4223      0.00000
     15      -2.4223      0.00000
     16      -2.1227      0.00000

 k-point     2 :       0.1250   -0.0000    0.0000
  band No.  band energies     occupation 
      1     -38.6660      2.00000
      2     -22.2320      2.00000
      3     -21.9343      2.00000
      4     -20.8201      2.00000
      5     -19.7004      2.00000
      6     -19.0750      2.00000
      7      -8.1394      2.00000
      8      -8.0388      2.00000
      9      -6.8556      2.00000
     10      -5.9269      2.00000
     11      -5.3544      2.00000
     12      -5.2844      2.00000
     13      -2.6323      0.00000
     14      -2.4259      0.00000
     15      -2.4056      0.00000
     16      -2.1310      0.00000

 k-point     3 :       0.2500   -0.0000    0.0000
  band No.  band energies     occupation 
      1     -38.6194      2.00000
      2     -22.8890      2.00000
      3     -21.9573      2.00000
      4     -20.9221      2.00000
      5     -19.7176      2.00000
      6     -18.4947      2.00000
      7      -7.6114      2.00000
      8      -7.4370      2.00000
      9      -6.9428      2.00000
     10      -5.9089      2.00000
     11      -5.4127      2.00000
     12      -5.3805      2.00000
     13      -2.5449      0.00000
     14      -2.4344      0.00000
     15      -2.3667      0.00000
     16      -2.2446      0.00000

 k-point     4 :       0.3750   -0.0000    0.0000
  band No.  band energies     occupation 
      1     -38.5722      2.00000
      2     -23.4926      2.00000
      3     -21.5862      2.00000
      4     -21.0202      2.00000
      5     -20.3188      2.00000
      6     -17.7349      2.00000
      7      -7.6581      2.00000
      8      -7.0284      2.00000
      9      -6.3863      2.00000
     10      -5.6541      2.00000
     11      -5.5624      2.00000
     12      -5.3279      2.00000
     13      -2.5172      0.00000
     14      -2.4429      0.00000
     15      -2.4134      0.00000
     16      -2.3949      0.00000

 k-point     5 :       0.5000   -0.0000    0.0000
  band No.  band energies     occupation 
      1     -38.5524      2.00000
      2     -23.7042      2.00000
      3     -21.2633      2.00000
      4     -21.0599      2.00000
      5     -20.7336      2.00000
      6     -17.4504      2.00000
      7      -7.8563      2.00000
      8      -6.7581      2.00000
      9      -5.9775      2.00000
     10      -5.6412      2.00000
     11      -5.4724      2.00000
     12      -5.4172      2.00000
     13      -2.6144      0.00000
     14      -2.4485      0.00000
     15      -2.4435      0.00000
     16      -2.3642      0.00000

 k-point     6 :       0.1250    0.1250    0.0000
  band No.  band energies     occupation 
      1     -38.6330      2.00000
      2     -22.6074      2.00000
      3     -22.1159      2.00000
      4     -20.9580      2.00000
      5     -19.3017      2.00000
      6     -18.9404      2.00000
      7      -7.7543      2.00000
      8      -7.5540      2.00000
      9      -6.9280      2.00000
     10      -5.9863      2.00000
     11      -5.5106      2.00000
     12      -5.2444      2.00000
     13      -2.5735      0.00000
     14      -2.4349      0.00000
     15      -2.3699      0.00000
     16      -2.2375      0.00000

 k-point     7 :       0.2500    0.1250    0.0000
  band No.  band energies     occupation 
      1     -38.5862      2.00000
      2     -23.2171      2.00000
      3     -21.9792      2.00000
      4     -21.1599      2.00000
      5     -19.5854      2.00000
      6     -18.1753      2.00000
      7      -7.3196      2.00000
      8      -7.1566      2.00000
      9      -6.8054      2.00000
     10      -5.9443      2.00000
     11      -5.5507      2.00000
     12      -5.1915      2.00000
     13      -2.4748      0.00000
     14      -2.4530      0.00000
     15      -2.4131      0.00000
     16      -2.3249      0.00000

 k-point     8 :       0.3750    0.1250    0.0000
  band No.  band energies     occupation 
      1     -38.5525      2.00000
      2     -23.5620      2.00000
      3     -21.8963      2.00000
      4     -21.2486      2.00000
      5     -19.8215      2.00000
      6     -17.7008      2.00000
      7      -7.6339      2.00000
      8      -6.6961      2.00000
      9      -6.2226      2.00000
     10      -5.8186      2.00000
     11      -5.5442      2.00000
     12      -5.2523      2.00000
     13      -2.5757      0.00000
     14      -2.4688      0.00000
     15      -2.3994      0.00000
     16      -2.3688      0.00000

 k-point     9 :       0.2500    0.2500    0.0000
  band No.  band energies     occupation 
      1     -38.5525      2.00000
      2     -23.3439      2.00000
      3     -22.4016      2.00000
      4     -21.2499      2.00000
      5     -19.1538      2.00000
      6     -18.0976      2.00000
      7      -7.2206      2.00000
      8      -6.7458      2.00000
      9      -6.6112      2.00000
     10      -5.8180      2.00000
     11      -5.6365      2.00000
     12      -5.1791      2.00000
     13      -2.5160      0.00000
     14      -2.5120      0.00000
     15      -2.3751      0.00000
     16      -2.3159      0.00000

 k-point    10 :       0.3750    0.2500    0.0000
  band No.  band energies     occupation 
      1     -38.5385      2.00000
      2     -23.3245      2.00000
      3     -22.6754      2.00000
      4     -21.2357      2.00000
      5     -18.9524      2.00000
      6     -18.1104      2.00000
      7      -7.2548      2.00000
      8      -6.5146      2.00000
      9      -6.4592      2.00000
     10      -5.7941      2.00000
     11      -5.4961      2.00000
     12      -5.3825      2.00000
     13      -2.5653      0.00000
     14      -2.5276      0.00000
     15      -2.3445      0.00000
     16      -2.3261      0.00000


--------------------------------------------------------------------------------------------------------


 soft charge-density along one line, spin component           1
         0         1         2         3         4         5         6         7         8         9
 total charge-density along one line
 
 pseudopotential strength for first ion, spin component:           1
 25.240 -19.447   0.000  -0.000   0.000  -0.000   0.000  -0.000
-19.447  10.357  -0.000   0.000  -0.000   0.000  -0.000   0.000
  0.000  -0.000  14.577   0.000   0.000  -6.568  -0.000  -0.000
 -0.000   0.000   0.000  14.540  -0.000  -0.000  -6.500   0.000
  0.000  -0.000   0.000  -0.000  14.577  -0.000   0.000  -6.568
 -0.000   0.000  -6.568  -0.000  -0.000  13.916  -0.000  -0.000
  0.000  -0.000  -0.000  -6.500   0.000  -0.000  13.845   0.000
 -0.000   0.000  -0.000   0.000  -6.568  -0.000   0.000  13.916
  0.000  -0.000   0.000  -0.000   0.000   0.000  -0.000   0.000
  0.000  -0.000   0.000   0.000  -0.000   0.000   0.000  -0.000
 -0.016   0.003  -0.000  -0.000  -0.000  -0.000   0.000  -0.000
 -0.000   0.000  -0.000   0.000  -0.000  -0.000   0.000  -0.000
 -0.000   0.000  -0.000  -0.000   0.000  -0.000  -0.000   0.000
 -0.000   0.000  -0.000   0.000  -0.000  -0.000   0.000  -0.000
 -0.000   0.000  -0.000  -0.000   0.000  -0.000  -0.000   0.000
  0.039  -0.008   0.000   0.000   0.000   0.000  -0.000   0.000
  0.000  -0.000   0.000  -0.000   0.000   0.000  -0.000   0.000
  0.000  -0.000   0.000   0.000  -0.000   0.000   0.000  -0.000
  0.000  -0.000   0.000  -0.012  -0.000  -0.000   0.010   0.000
  0.000  -0.000   0.000  -0.000  -0.015  -0.000   0.000   0.012
  0.000  -0.000  -0.024  -0.000   0.000   0.012   0.000  -0.000
 -0.000   0.000   0.000  -0.034  -0.000  -0.000   0.018   0.000
  0.000  -0.000   0.000   0.000  -0.024  -0.000  -0.000   0.012
  0.000  -0.000  -0.015   0.000   0.000   0.012  -0.000  -0.000
  0.000  -0.000   0.000   0.000   0.000  -0.000  -0.000  -0.000
  0.000  -0.000   0.000  -0.012  -0.000  -0.000   0.009   0.000
  0.000  -0.000   0.000  -0.000  -0.015  -0.000   0.000   0.012
  0.000  -0.000  -0.024  -0.000   0.000   0.013   0.000  -0.000
 -0.000   0.000   0.000  -0.034  -0.000  -0.000   0.019   0.000
  0.000  -0.000   0.000   0.000  -0.024  -0.000  -0.000   0.013
  0.000  -0.000  -0.015   0.000   0.000   0.012  -0.000  -0.000
  0.000  -0.000   0.000   0.000   0.000  -0.000  -0.000  -0.000
 total augmentation occupancy for first ion, spin component:           1
  1.851  -0.386   0.000   0.000   0.000   0.000   0.000   0.000   0.000   0.000   0.018  -0.000  -0.000  -0.000   0.000  -0.007
 -0.386   0.900   0.000   0.000   0.000   0.000   0.000   0.000   0.000   0.000  -0.305   0.000   0.000   0.000   0.000  -0.051
  0.000   0.000   2.056   0.000   0.000  -0.077   0.000   0.000   0.000   0.000   0.000   0.000   0.000   0.000   0.000   0.000
  0.000   0.000  -0.000   2.023  -0.000   0.000  -0.050   0.000   0.000   0.000   0.000   0.000   0.000   0.000   0.000   0.000
  0.000   0.000  -0.000   0.000   2.056   0.000   0.000  -0.077   0.000   0.000   0.000   0.000   0.000   0.000   0.000   0.000
  0.000   0.000  -0.077   0.000   0.000   0.018   0.000  -0.000   0.000   0.000   0.000   0.000   0.000   0.000   0.000   0.000
  0.000   0.000   0.000  -0.050  -0.000   0.000   0.007   0.000   0.000   0.000   0.000   0.000   0.000   0.000   0.000   0.000
  0.000   0.000   0.000   0.000  -0.077   0.000   0.000   0.018   0.000   0.000   0.000   0.000   0.000   0.000   0.000   0.000
  0.000  -0.000   0.000   0.000   0.000   0.000   0.000   0.000   0.634   0.000  -0.000  -0.245   0.000   0.108   0.000   0.000
  0.000  -0.000   0.000   0.000   0.000   0.000   0.000   0.000   0.000   0.450   0.000   0.000  -0.245  -0.000   0.068   0.000
  0.018  -0.305   0.000   0.000   0.000   0.000   0.000   0.000   0.000   0.000   0.305  -0.000  -0.000  -0.000   0.000   0.046
 -0.000   0.000   0.000   0.000   0.000   0.000   0.000   0.000  -0.245  -0.000  -0.000   0.450   0.000  -0.045   0.000   0.000
 -0.000   0.000   0.000   0.000   0.000   0.000   0.000   0.000  -0.000  -0.245  -0.000   0.000   0.634   0.000  -0.044  -0.000
 -0.000   0.000   0.000   0.000   0.000   0.000   0.000   0.000   0.108   0.000   0.000  -0.045   0.000   0.020  -0.000   0.000
  0.000   0.000   0.000   0.000   0.000   0.000   0.000   0.000   0.000   0.068   0.000   0.000  -0.044   0.000   0.011   0.000
 -0.007  -0.051   0.000   0.000   0.000   0.000   0.000   0.000   0.000   0.000   0.046   0.000  -0.000   0.000   0.000   0.008
  0.000  -0.000   0.000   0.000   0.000   0.000   0.000   0.000  -0.044   0.000   0.000   0.068   0.000  -0.009  -0.000  -0.000
  0.000   0.000   0.000   0.000   0.000   0.000   0.000   0.000   0.000  -0.045  -0.000  -0.000   0.108  -0.000  -0.009  -0.000
  0.000   0.000   0.000  -0.174   0.000  -0.000   0.107  -0.000   0.000   0.000   0.000   0.000   0.000   0.000   0.000   0.000
  0.000   0.000   0.000  -0.000  -0.226   0.000   0.000   0.138   0.000   0.000   0.000   0.000   0.000   0.000   0.000   0.000
  0.000   0.000  -0.259   0.000   0.000   0.087  -0.000   0.000   0.000   0.000   0.000   0.000   0.000   0.000   0.000   0.000
  0.000   0.000   0.000  -0.338  -0.000  -0.000   0.105   0.000   0.000   0.000   0.000   0.000   0.000   0.000   0.000   0.000
  0.000   0.000  -0.000  -0.000  -0.259   0.000   0.000   0.087   0.000   0.000   0.000   0.000   0.000   0.000   0.000   0.000
  0.000   0.000  -0.226   0.000   0.000   0.138  -0.000  -0.000   0.000   0.000   0.000   0.000   0.000   0.000   0.000   0.000
  0.000   0.000  -0.000   0.000   0.000  -0.000  -0.000  -0.000   0.000   0.000   0.000   0.000   0.000   0.000   0.000   0.000
  0.000   0.000  -0.000   0.226   0.000   0.000  -0.127   0.000   0.000   0.000   0.000   0.000   0.000   0.000   0.000   0.000
  0.000   0.000   0.000   0.000   0.299  -0.000   0.000  -0.166   0.000   0.000   0.000   0.000   0.000   0.000   0.000   0.000
  0.000   0.000   0.308  -0.000  -0.000  -0.102   0.000   0.000   0.000   0.000   0.000   0.000   0.000   0.000   0.000   0.000
  0.000   0.000  -0.000   0.401   0.000   0.000  -0.125   0.000   0.000   0.000   0.000   0.000   0.000   0.000   0.000   0.000
  0.000   0.000   0.000   0.000   0.308   0.000   0.000  -0.102   0.000   0.000   0.000   0.000   0.000   0.000   0.000   0.000
  0.000   0.000   0.299  -0.000  -0.000  -0.166   0.000   0.000   0.000   0.000   0.000   0.000   0.000   0.000   0.000   0.000
  0.000   0.000   0.000   0.000  -0.000   0.000   0.000   0.000   0.000   0.000   0.000   0.000   0.000   0.000   0.000   0.000


------------------------ aborting loop because EDIFF is reached ----------------------------------------


 


 total charge     
 
# of ion       s       p       d       f       tot
--------------------------------------------------
    1        1.989   5.796   0.901   0.760   9.447
    2        1.600   3.419   0.000   0.000   5.018
    3        1.600   3.419   0.000   0.000   5.018
--------------------------------------------------
tot          5.189  12.634   0.901   0.760  19.483

 
    CHARGE:  cpu time    0.0547: real time    0.0548
    FORLOC:  cpu time    0.0019: real time    0.0019
    FORNL :  cpu time    0.2030: real time    0.2035
    STRESS:  cpu time    0.6523: real time    0.6537
    FORCOR:  cpu time    0.0259: real time    0.0259
    FORHAR:  cpu time    0.0056: real time    0.0057
    MIXING:  cpu time    0.0019: real time    0.0019
    OFIELD:  cpu time    0.0001: real time    0.0001

  FORCE on cell =-STRESS in cart. coord.  units (eV):
  Direction    XX          YY          ZZ          XY          YZ          ZX
  --------------------------------------------------------------------------------------
  Alpha Z    12.07680    12.07680    12.07680
  Ewald   10275.91873 10275.91925-11486.19544     0.00045     0.00018    -0.00030
  Hartree 10554.36833 10554.36835-10355.84613     0.00002     0.00001    -0.00002
  E(xc)    -113.62224  -113.62224  -115.16529     0.00000    -0.00000     0.00000
  Local  -21215.47117-21215.47150 21460.21217    -0.00029    -0.00012     0.00021
  n-local    16.13972    16.76314    24.84150    -0.81013     0.33090     2.15174
  augment   -17.26987   -17.26981   -16.31684     0.00005     0.00000    -0.00000
  Kinetic   483.05360   482.67400   476.09150    -0.39456    -0.48600    -3.08180
  Fock        0.00000     0.00000     0.00000     0.00000     0.00000     0.00000
  -------------------------------------------------------------------------------------
  Total      -4.68405    -4.68405    -0.30171    -0.00000     0.00000    -0.00000
  in kB     -17.03295   -17.03295    -1.09714    -0.00000     0.00000    -0.00000
  external pressure =      -11.72 kB  Pullay stress =        0.00 kB


 VOLUME and BASIS-vectors are now :
 -----------------------------------------------------------------------------
  energy-cutoff  :      400.00
  volume of cell :      440.60
      direct lattice vectors                 reciprocal lattice vectors
     3.797446258  0.000000000  0.000000000     0.263334866  0.152036456  0.000000000
    -1.898723129  3.288684929  0.000000000     0.000000000  0.304072911  0.000000000
     0.000000000  0.000000000 35.280000000     0.000000000  0.000000000  0.028344671

  length of vectors
     3.797446258  3.797446258 35.280000000     0.304072911  0.304072911  0.028344671


 FORCES acting on ions
    electron-ion (+dipol)            ewald-force                    non-local-force                 convergence-correction
 -----------------------------------------------------------------------------------------------
   0.290E-04 0.502E-04 -.626E-11   -.284E-03 -.492E-03 0.171E-12   0.278E-21 0.370E-21 -.293E-21   -.452E-08 -.783E-08 0.519E-12
   0.548E-05 0.255E-02 -.474E+03   -.536E-04 0.359E-03 0.482E+03   0.176E-16 -.534E-17 -.678E+01   -.180E-08 -.678E-08 -.516E-03
   0.220E-02 0.128E-02 0.474E+03   0.338E-03 0.133E-03 -.482E+03   -.432E-17 -.232E-17 0.678E+01   -.497E-08 -.494E-08 0.516E-03
 -----------------------------------------------------------------------------------------------
   0.224E-02 0.388E-02 0.397E-11   -.696E-14 0.329E-13 0.568E-13   0.133E-16 -.766E-17 0.000E+00   -.113E-07 -.196E-07 0.105E-11
 
 
 POSITION                                       TOTAL-FORCE (eV/Angst)
 -----------------------------------------------------------------------------------
      0.00000      0.00000      0.00000        -0.000000      0.000000      0.000000
      0.00000      2.19245      0.77515         0.000000      0.000000      0.696134
      1.89872      1.09623     34.50485        -0.000000     -0.000000     -0.696134
 -----------------------------------------------------------------------------------
    total drift:                                0.002238      0.003876      0.000000


--------------------------------------------------------------------------------------------------------



  FREE ENERGIE OF THE ION-ELECTRON SYSTEM (eV)
  ---------------------------------------------------
  free  energy   TOTEN  =       -23.26895686 eV

  energy  without entropy=      -23.26895686  energy(sigma->0) =      -23.26895686
 


--------------------------------------------------------------------------------------------------------


    POTLOK:  cpu time    0.4153: real time    0.4162


--------------------------------------------------------------------------------------------------------


     LOOP+:  cpu time   18.0215: real time   18.0623
    4ORBIT:  cpu time    0.0000: real time    0.0000
 


 total charge     
 
# of ion       s       p       d       f       tot
--------------------------------------------------
    1        1.989   5.796   0.901   0.760   9.447
    2        1.600   3.419   0.000   0.000   5.018
    3        1.600   3.419   0.000   0.000   5.018
--------------------------------------------------
tot          5.189  12.634   0.901   0.760  19.483

 

 total amount of memory used by VASP MPI-rank0    44861. kBytes
=======================================================================

   base      :      30000. kBytes
   nonl-proj :       2615. kBytes
   fftplans  :       7951. kBytes
   grid      :       3558. kBytes
   one-center:         49. kBytes
   wavefun   :        688. kBytes
 
  
  
 General timing and accounting informations for this job:
 ========================================================
  
                  Total CPU time used (sec):       19.853
                            User time (sec):       17.730
                          System time (sec):        2.123
                         Elapsed time (sec):       20.202
  
                   Maximum memory used (kb):      184980.
                   Average memory used (kb):           0.
  
                          Minor page faults:       163104
                          Major page faults:            0
                 Voluntary context switches:         1759
