32
Lattice="15.0 0.0 0.0 0.0 17.3205 0.0 0.0 0.0 12.0" Properties=species:S:1:pos:R:3:forces:R:3 energy=-140.00698802 stress="0.029576820298587648 -0.0 -0.0 -0.0 0.028288098460311772 -0.0 -0.0 -0.0 4.52946317265348e-05" free_energy=-140.03590369 pbc="T T T"
Si       5.00000000       1.08253000       6.00000000       0.01265500       0.00000000       0.00000000
Si       6.25000000       3.24759000       6.00000000      -0.01265500      -0.00000000      -0.00000000
Si       5.00000000       5.41266000       6.00000000       0.01265500       0.00000000       0.00000000
Si       6.25000000       7.57772000       6.00000000      -0.01265500      -0.00000000       0.00000000
Si       1.25000000       3.24759000       6.00000000       0.01265500      -0.00000000       0.00000000
Si       2.50000000       5.41266000       6.00000000      -0.01265500       0.00000000       0.00000000
Si       1.25000000       7.57772000       6.00000000       0.01265500       0.00000000      -0.00000000
Si       2.50000000       1.08253000       6.00000000      -0.01265500      -0.00000000      -0.00000000
Si       5.00000000       9.74278000       6.00000000       0.01265500      -0.00000000       0.00000000
Si       6.25000000      11.90784000       6.00000000      -0.01265500       0.00000000       0.00000000
Si       5.00000000      14.07291000       6.00000000       0.01265500      -0.00000000      -0.00000000
Si       6.25000000      16.23797000       6.00000000      -0.01265500      -0.00000000      -0.00000000
Si       1.25000000      11.90784000       6.00000000       0.01265500       0.00000000       0.00000000
Si       2.50000000      14.07291000       6.00000000      -0.01265500      -0.00000000       0.00000000
Si       1.25000000      16.23797000       6.00000000       0.01265500       0.00000000      -0.00000000
Si       2.50000000       9.74278000       6.00000000      -0.01265500      -0.00000000       0.00000000
Si      12.50000000       1.08253000       6.00000000       0.01265500       0.00000000      -0.00000000
Si      13.75000000       3.24759000       6.00000000      -0.01265500      -0.00000000      -0.00000000
Si      12.50000000       5.41266000       6.00000000       0.01265500      -0.00000000       0.00000000
Si      13.75000000       7.57772000       6.00000000      -0.01265500       0.00000000      -0.00000000
Si       8.75000000       3.24759000       6.00000000       0.01265500       0.00000000      -0.00000000
Si      10.00000000       5.41266000       6.00000000      -0.01265500      -0.00000000       0.00000000
Si       8.75000000       7.57772000       6.00000000       0.01265500       0.00000000       0.00000000
Si      10.00000000       1.08253000       6.00000000      -0.01265500      -0.00000000       0.00000000
Si      12.50000000       9.74278000       6.00000000       0.01265500       0.00000000      -0.00000000
Si      13.75000000      11.90784000       6.00000000      -0.01265500      -0.00000000      -0.00000000
Si      12.50000000      14.07291000       6.00000000       0.01265500       0.00000000      -0.00000000
Si      13.75000000      16.23797000       6.00000000      -0.01265500      -0.00000000       0.00000000
Si       8.75000000      11.90784000       6.00000000       0.01265500      -0.00000000       0.00000000
Si      10.00000000      14.07291000       6.00000000      -0.01265500      -0.00000000       0.00000000
Si       8.75000000      16.23797000       6.00000000       0.01265500      -0.00000000       0.00000000
Si      10.00000000       9.74278000       6.00000000      -0.01265500       0.00000000       0.00000000
