# LAMMPS data file written by OVITO Basic 3.6.0
6 atoms
2 atom types
0.0 4.5998373238807098 xlo xhi
0.0 4.5998373238807098 ylo yhi
0.0 2.9592135600011331 zlo zhi

Masses

1 15.9994  # O
2 65.409  # Zn

Atoms  # atomic

1 1 2.29991866 2.29991866 0.00000000
2 1 0.00000000 0.00000000 1.47960678
3 2 3.20000878 3.20000878 1.47960678
4 2 0.90009011 3.69974721 0.00000000
5 2 3.69974721 0.90009011 0.00000000
6 2 1.39982854 1.39982854 1.47960678