32
Lattice="12.6 0.0 0.0 0.0 14.5492 0.0 0.0 0.0 12.0" Properties=species:S:1:pos:R:3:forces:R:3 energy=-142.2136274 stress="-0.06555482625102603 -0.0 -0.0 -0.0 -0.0607990646819954 -0.0 -0.0 -0.0 3.8435213197189104e-05" free_energy=-142.20589503 pbc="T T T"
Si       4.20000000       0.90933000       6.00000000       0.39272600       0.00000000      -0.00000000
Si       5.25000000       2.72798000       6.00000000      -0.39272600      -0.00000000      -0.00000000
Si       4.20000000       4.54663000       6.00000000       0.39272600       0.00000000       0.00000000
Si       5.25000000       6.36528000       6.00000000      -0.39272600      -0.00000000       0.00000000
Si       1.05000000       2.72798000       6.00000000       0.39272600       0.00000000      -0.00000000
Si       2.10000000       4.54663000       6.00000000      -0.39272600      -0.00000000      -0.00000000
Si       1.05000000       6.36528000       6.00000000       0.39272600       0.00000000       0.00000000
Si       2.10000000       0.90933000       6.00000000      -0.39272600      -0.00000000       0.00000000
Si       4.20000000       8.18393000       6.00000000       0.39272600       0.00000000      -0.00000000
Si       5.25000000      10.00258000       6.00000000      -0.39272600      -0.00000000      -0.00000000
Si       4.20000000      11.82123000       6.00000000       0.39272600       0.00000000       0.00000000
Si       5.25000000      13.63987000       6.00000000      -0.39272600      -0.00000000       0.00000000
Si       1.05000000      10.00258000       6.00000000       0.39272600       0.00000000      -0.00000000
Si       2.10000000      11.82123000       6.00000000      -0.39272600      -0.00000000      -0.00000000
Si       1.05000000      13.63987000       6.00000000       0.39272600       0.00000000       0.00000000
Si       2.10000000       8.18393000       6.00000000      -0.39272600      -0.00000000       0.00000000
Si      10.50000000       0.90933000       6.00000000       0.39272600       0.00000000       0.00000000
Si      11.55000000       2.72798000       6.00000000      -0.39272600      -0.00000000       0.00000000
Si      10.50000000       4.54663000       6.00000000       0.39272600       0.00000000      -0.00000000
Si      11.55000000       6.36528000       6.00000000      -0.39272600      -0.00000000      -0.00000000
Si       7.35000000       2.72798000       6.00000000       0.39272600       0.00000000       0.00000000
Si       8.40000000       4.54663000       6.00000000      -0.39272600      -0.00000000       0.00000000
Si       7.35000000       6.36528000       6.00000000       0.39272600       0.00000000      -0.00000000
Si       8.40000000       0.90933000       6.00000000      -0.39272600      -0.00000000      -0.00000000
Si      10.50000000       8.18393000       6.00000000       0.39272600       0.00000000       0.00000000
Si      11.55000000      10.00258000       6.00000000      -0.39272600      -0.00000000      -0.00000000
Si      10.50000000      11.82123000       6.00000000       0.39272600       0.00000000      -0.00000000
Si      11.55000000      13.63987000       6.00000000      -0.39272600      -0.00000000      -0.00000000
Si       7.35000000      10.00258000       6.00000000       0.39272600       0.00000000       0.00000000
Si       8.40000000      11.82123000       6.00000000      -0.39272600      -0.00000000       0.00000000
Si       7.35000000      13.63987000       6.00000000       0.39272600       0.00000000      -0.00000000
Si       8.40000000       8.18393000       6.00000000      -0.39272600      -0.00000000      -0.00000000
