 vasp.5.4.4.18Apr17-6-g9f103f2a35 (build Aug 01 2018 12:10:22) complex          
  
 executed on        TETRALITH-B01 date 2020.10.15  12:11:51
 running on   32 total cores
 distrk:  each k-point on   32 cores,    1 groups
 distr:  one band on NCORES_PER_BAND=  16 cores,    2 groups


--------------------------------------------------------------------------------------------------------


 INCAR:
 POTCAR:    PAW_PBE Ce 23Dec2003                  
 POTCAR:    PAW_PBE O 08Apr2002                   

 ----------------------------------------------------------------------------- 
|                                                                             |
|           W    W    AA    RRRRR   N    N  II  N    N   GGGG   !!!           |
|           W    W   A  A   R    R  NN   N  II  NN   N  G    G  !!!           |
|           W    W  A    A  R    R  N N  N  II  N N  N  G       !!!           |
|           W WW W  AAAAAA  RRRRR   N  N N  II  N  N N  G  GGG   !            |
|           WW  WW  A    A  R   R   N   NN  II  N   NN  G    G                |
|           W    W  A    A  R    R  N    N  II  N    N   GGGG   !!!           |
|                                                                             |
|      For optimal performance we recommend to set                            |
|        NCORE= 4 - approx SQRT( number of cores)                             |
|      NCORE specifies how many cores store one orbital (NPAR=cpu/NCORE).     |
|      This setting can  greatly improve the performance of VASP for DFT.     |
|      The default,   NCORE=1            might be grossly inefficient         |
|      on modern multi-core architectures or massively parallel machines.     |
|      Do your own testing !!!!                                               |
|      Unfortunately you need to use the default for GW and RPA calculations. |
|      (for HF NCORE is supported but not extensively tested yet)             |
|                                                                             |
 ----------------------------------------------------------------------------- 

 POTCAR:    PAW_PBE Ce 23Dec2003                  
   VRHFIN =Ce : [core= Kr 4d10]                                                 
   LEXCH  = PE                                                                  
   EATOM  =  1063.0861 eV,   78.1346 Ry                                         
                                                                                
   TITEL  = PAW_PBE Ce 23Dec2003                                                
   LULTRA =        F    use ultrasoft PP ?                                      
   IUNSCR =        1    unscreen: 0-lin 1-nonlin 2-no                           
   RPACOR =    1.800    partial core radius                                     
   POMASS =  140.115; ZVAL   =   12.000    mass and valenz                      
   RCORE  =    2.700    outmost cutoff radius                                   
   RWIGS  =    2.500; RWIGS  =    1.323    wigner-seitz radius (au A)           
   ENMAX  =  273.042; ENMIN  =  204.781 eV                                      
   RCLOC  =    1.810    cutoff for local pot                                    
   LCOR   =        T    correct aug charges                                     
   LPAW   =        T    paw PP                                                  
   EAUG   =  580.196                                                            
   DEXC   =    0.000                                                            
   RMAX   =    2.749    core radius for proj-oper                               
   RAUG   =    1.300    factor for augmentation sphere                          
   RDEP   =    2.810    radius for radial grids                                 
   RDEPT  =    2.162    core radius for aug-charge                              
                                                                                
   Atomic configuration                                                         
   14 entries                                                                   
     n  l   j            E        occ.                                          
     1  0  0.50    -40258.9816   2.0000                                         
     2  0  0.50     -6445.4884   2.0000                                         
     2  1  1.50     -5771.7470   6.0000                                         
     3  0  0.50     -1387.9739   2.0000                                         
     3  1  1.50     -1173.8158   6.0000                                         
     3  2  2.50      -869.9108  10.0000                                         
     4  0  0.50      -280.8706   2.0000                                         
     4  1  1.50      -210.9815   6.0000                                         
     4  2  2.50      -110.4558  10.0000                                         
     5  0  0.50       -40.5819   2.0000                                         
     6  0  0.50        -3.7444   2.0000                                         
     5  1  1.50       -23.2188   6.0000                                         
     5  2  2.50        -3.0598   1.0000                                         
     4  3  2.50        -5.3970   1.0000                                         
   Description                                                                  
     l       E           TYP  RCUT    TYP  RCUT                                 
     0    -40.5819164     23  1.500                                             
     0     -3.7443793     23  2.300                                             
     1    -23.2188445     23  2.000                                             
     1     40.8174780     23  2.300                                             
     2     -3.0597556     23  2.500                                             
     2     13.6058260     23  2.500                                             
     3     -5.3970469     23  2.700                                             
     3     -5.8505052     23  2.700                                             
  local pseudopotential read in
  partial core-charges read in
  partial kinetic energy density read in
  atomic valenz-charges read in
  non local Contribution for L=           0  read in
    real space projection operators read in
  non local Contribution for L=           0  read in
    real space projection operators read in
  non local Contribution for L=           1  read in
    real space projection operators read in
  non local Contribution for L=           1  read in
    real space projection operators read in
  non local Contribution for L=           2  read in
    real space projection operators read in
  non local Contribution for L=           2  read in
    real space projection operators read in
  non local Contribution for L=           3  read in
    real space projection operators read in
  non local Contribution for L=           3  read in
    real space projection operators read in
    PAW grid and wavefunctions read in
 
   number of l-projection  operators is LMAX  =           8
   number of lm-projection operators is LMMAX =          32
 
 POTCAR:    PAW_PBE O 08Apr2002                   
   VRHFIN =O: s2p4                                                              
   LEXCH  = PE                                                                  
   EATOM  =   432.3788 eV,   31.7789 Ry                                         
                                                                                
   TITEL  = PAW_PBE O 08Apr2002                                                 
   LULTRA =        F    use ultrasoft PP ?                                      
   IUNSCR =        1    unscreen: 0-lin 1-nonlin 2-no                           
   RPACOR =    1.200    partial core radius                                     
   POMASS =   16.000; ZVAL   =    6.000    mass and valenz                      
   RCORE  =    1.520    outmost cutoff radius                                   
   RWIGS  =    1.550; RWIGS  =    0.820    wigner-seitz radius (au A)           
   ENMAX  =  400.000; ENMIN  =  300.000 eV                                      
   ICORE  =        2    local potential                                         
   LCOR   =        T    correct aug charges                                     
   LPAW   =        T    paw PP                                                  
   EAUG   =  605.392                                                            
   DEXC   =    0.000                                                            
   RMAX   =    1.553    core radius for proj-oper                               
   RAUG   =    1.300    factor for augmentation sphere                          
   RDEP   =    1.550    radius for radial grids                                 
   RDEPT  =    1.329    core radius for aug-charge                              
                                                                                
   Atomic configuration                                                         
    4 entries                                                                   
     n  l   j            E        occ.                                          
     1  0  0.50      -514.6923   2.0000                                         
     2  0  0.50       -23.9615   2.0000                                         
     2  1  0.50        -9.0305   4.0000                                         
     3  2  1.50        -9.5241   0.0000                                         
   Description                                                                  
     l       E           TYP  RCUT    TYP  RCUT                                 
     0    -23.9615318     23  1.200                                             
     0     -9.5240782     23  1.200                                             
     1     -9.0304911     23  1.520                                             
     1      8.1634956     23  1.520                                             
     2     -9.5240782      7  1.500                                             
  local pseudopotential read in
  partial core-charges read in
  partial kinetic energy density read in
  kinetic energy density of atom read in
  atomic valenz-charges read in
  non local Contribution for L=           0  read in
    real space projection operators read in
  non local Contribution for L=           0  read in
    real space projection operators read in
  non local Contribution for L=           1  read in
    real space projection operators read in
  non local Contribution for L=           1  read in
    real space projection operators read in
    PAW grid and wavefunctions read in
 
   number of l-projection  operators is LMAX  =           4
   number of lm-projection operators is LMMAX =           8
 
  PAW_PBE Ce 23Dec2003                  :
 energy of atom  1       EATOM=-1063.0861
 kinetic energy error for atom=    0.0451 (will be added to EATOM!!)
  PAW_PBE O 08Apr2002                   :
 energy of atom  2       EATOM= -432.3788
 kinetic energy error for atom=    0.1156 (will be added to EATOM!!)
 
 
 POSCAR: Ceria 111 3x3                           
  positions in direct lattice
  No initial velocities read in
 exchange correlation table for  LEXCH =        8
   RHO(1)=    0.500       N(1)  =     2000
   RHO(2)=  100.500       N(2)  =     4000
 


--------------------------------------------------------------------------------------------------------


 ion  position               nearest neighbor table
   1  0.000  0.000  0.000-   2 2.23   3 2.23   3 2.23   2 2.23   2 2.23   3 2.23
   2  0.333  0.667  0.022-   1 2.23   1 2.23   1 2.23
   3  0.667  0.333  0.978-   1 2.23   1 2.23   1 2.23
 
  LATTYP: Found a hexagonal cell.
 ALAT       =     3.6424484512
 C/A-ratio  =     9.2904540594
  
  Lattice vectors:
  
 A1 = (   3.6424484512,   0.0000000000,   0.0000000000)
 A2 = (  -1.8212242256,   3.1544528908,   0.0000000000)
 A3 = (   0.0000000000,   0.0000000000,  33.8400000000)


Analysis of symmetry for initial positions (statically):
=====================================================================
 Subroutine PRICEL returns:
 Original cell was already a primitive cell.
 

 Routine SETGRP: Setting up the symmetry group for a 
 hexagonal supercell.


 Subroutine GETGRP returns: Found 12 space group operations
 (whereof 12 operations were pure point group operations)
 out of a pool of 24 trial point group operations.


The static configuration has the point symmetry D_3d.


Analysis of symmetry for dynamics (positions and initial velocities):
=====================================================================
 Subroutine PRICEL returns:
 Original cell was already a primitive cell.
 

 Routine SETGRP: Setting up the symmetry group for a 
 hexagonal supercell.


 Subroutine GETGRP returns: Found 12 space group operations
 (whereof 12 operations were pure point group operations)
 out of a pool of 24 trial point group operations.


The dynamic configuration has the point symmetry D_3d.


 Subroutine INISYM returns: Found 12 space group operations
 (whereof 12 operations are pure point group operations),
 and found     1 'primitive' translations

 
 
 KPOINTS: 1x1x1                                   

Automatic generation of k-mesh.
Space group operators:
 irot       det(A)        alpha          n_x          n_y          n_z        tau_x        tau_y        tau_z
    1     1.000000     0.000000     1.000000     0.000000     0.000000     0.000000     0.000000     0.000000
    2    -1.000000     0.000000     1.000000     0.000000     0.000000     0.000000     0.000000     0.000000
    3     1.000000   120.000000     0.000000     0.000000    -1.000000     0.000000     0.000000     0.000000
    4    -1.000000   120.000000     0.000000     0.000000    -1.000000     0.000000     0.000000     0.000000
    5     1.000000   120.000000     0.000000     0.000000     1.000000     0.000000     0.000000     0.000000
    6    -1.000000   120.000000     0.000000     0.000000     1.000000     0.000000     0.000000     0.000000
    7     1.000000   180.000000     1.000000    -0.000000     0.000000     0.000000     0.000000     0.000000
    8    -1.000000   180.000000     1.000000    -0.000000     0.000000     0.000000     0.000000     0.000000
    9     1.000000   180.000000     0.500000    -0.866025     0.000000     0.000000     0.000000     0.000000
   10    -1.000000   180.000000     0.500000    -0.866025     0.000000     0.000000     0.000000     0.000000
   11     1.000000   180.000000    -0.500000    -0.866025     0.000000     0.000000     0.000000     0.000000
   12    -1.000000   180.000000    -0.500000    -0.866025     0.000000     0.000000     0.000000     0.000000
 
 Subroutine IBZKPT returns following result:
 ===========================================
 
 Found     10 irreducible k-points:
 
 Following reciprocal coordinates:
            Coordinates               Weight
  0.000000  0.000000  0.000000      1.000000
  0.125000 -0.000000  0.000000      6.000000
  0.250000 -0.000000  0.000000      6.000000
  0.375000 -0.000000  0.000000      6.000000
  0.500000 -0.000000  0.000000      3.000000
  0.125000  0.125000  0.000000      6.000000
  0.250000  0.125000  0.000000     12.000000
  0.375000  0.125000  0.000000     12.000000
  0.250000  0.250000  0.000000      6.000000
  0.375000  0.250000  0.000000      6.000000
 
 Following cartesian coordinates:
            Coordinates               Weight
  0.000000  0.000000  0.000000      1.000000
  0.032259  0.018624  0.000000      6.000000
  0.064517  0.037249  0.000000      6.000000
  0.096776  0.055873  0.000000      6.000000
  0.129034  0.074498  0.000000      3.000000
  0.032259  0.055873  0.000000      6.000000
  0.064517  0.074498  0.000000     12.000000
  0.096776  0.093122  0.000000     12.000000
  0.064517  0.111747  0.000000      6.000000
  0.096776  0.130371  0.000000      6.000000
 


--------------------------------------------------------------------------------------------------------




 Dimension of arrays:
   k-points           NKPTS =     10   k-points in BZ     NKDIM =     10   number of bands    NBANDS=     16
   number of dos      NEDOS =    301   number of ions     NIONS =      3
   non local maximal  LDIM  =      8   non local SUM 2l+1 LMDIM =     32
   total plane-waves  NPLWV = 129024
   max r-space proj   IRMAX =      1   max aug-charges    IRDMAX= 140112
   dimension x,y,z NGX =    24 NGY =   24 NGZ =  224
   dimension x,y,z NGXF=    48 NGYF=   48 NGZF=  448
   support grid    NGXF=    96 NGYF=   96 NGZF=  896
   ions per type =               1   2
   NGX,Y,Z   is equivalent  to a cutoff of  10.95, 10.95, 11.00 a.u.
   NGXF,Y,Z  is equivalent  to a cutoff of  21.91, 21.91, 22.01 a.u.

 SYSTEM =  CeO2                                    
 POSCAR =  Ceria 111 3x3                           

 Startparameter for this run:
   NWRITE =      2    write-flag & timer
   PREC   = accura    normal or accurate (medium, high low for compatibility)
   ISTART =      0    job   : 0-new  1-cont  2-samecut
   ICHARG =      2    charge: 1-file 2-atom 10-const
   ISPIN  =      1    spin polarized calculation?
   LNONCOLLINEAR =      F non collinear calculations
   LSORBIT =      F    spin-orbit coupling
   INIWAV =      1    electr: 0-lowe 1-rand  2-diag
   LASPH  =      T    aspherical Exc in radial PAW
   METAGGA=      F    non-selfconsistent MetaGGA calc.

 Electronic Relaxation 1
   ENCUT  =  400.0 eV  29.40 Ry    5.42 a.u.   5.94  5.94 55.18*2*pi/ulx,y,z
   ENINI  =  400.0     initial cutoff
   ENAUG  =  605.4 eV  augmentation charge cutoff
   NELM   =    140;   NELMIN=  4; NELMDL=  0     # of ELM steps 
   EDIFF  = 0.1E-05   stopping-criterion for ELM
   LREAL  =      F    real-space projection
   NLSPLINE    = F    spline interpolate recip. space projectors
   LCOMPAT=      F    compatible to vasp.4.4
   GGA_COMPAT  = T    GGA compatible to vasp.4.4-vasp.4.6
   LMAXPAW     = -100 max onsite density
   LMAXMIX     =    6 max onsite mixed and CHGCAR
   VOSKOWN=      0    Vosko Wilk Nusair interpolation
   ROPT   =    0.00000   0.00000
 Ionic relaxation
   EDIFFG = -.1E-01   stopping-criterion for IOM
   NSW    =      0    number of steps for IOM
   NBLOCK =      1;   KBLOCK =      1    inner block; outer block 
   IBRION =     -1    ionic relax: 0-MD 1-quasi-New 2-CG
   NFREE  =      1    steps in history (QN), initial steepest desc. (CG)
   ISIF   =      2    stress and relaxation
   IWAVPR =     10    prediction:  0-non 1-charg 2-wave 3-comb
   ISYM   =      2    0-nonsym 1-usesym 2-fastsym
   LCORR  =      T    Harris-Foulkes like correction to forces

   POTIM  = 0.5000    time-step for ionic-motion
   TEIN   =    0.0    initial temperature
   TEBEG  =    0.0;   TEEND  =   0.0 temperature during run
   SMASS  =  -3.00    Nose mass-parameter (am)
   estimated Nose-frequenzy (Omega)   =  0.10E-29 period in steps =****** mass=  -0.303E-27a.u.
   SCALEE = 1.0000    scale energy and forces
   NPACO  =    256;   APACO  = 16.0  distance and # of slots for P.C.
   PSTRESS=    0.0 pullay stress

  Mass of Ions in am
   POMASS = 140.12 16.00
  Ionic Valenz
   ZVAL   =  12.00  6.00
  Atomic Wigner-Seitz radii
   RWIGS  =  -1.00 -1.00
  virtual crystal weights 
   VCA    =   1.00  1.00
   NELECT =      24.0000    total number of electrons
   NUPDOWN=      -1.0000    fix difference up-down

 DOS related values:
   EMIN   =  10.00;   EMAX   =-10.00  energy-range for DOS
   EFERMI =   0.00
   ISMEAR =     0;   SIGMA  =   0.00  broadening in eV -4-tet -1-fermi 0-gaus

 Electronic relaxation 2 (details)
   IALGO  =     38    algorithm
   LDIAG  =      T    sub-space diagonalisation (order eigenvalues)
   LSUBROT=      F    optimize rotation matrix (better conditioning)
   TURBO    =      0    0=normal 1=particle mesh
   IRESTART =      0    0=no restart 2=restart with 2 vectors
   NREBOOT  =      0    no. of reboots
   NMIN     =      0    reboot dimension
   EREF     =   0.00    reference energy to select bands
   IMIX   =      4    mixing-type and parameters
     AMIX     =   0.40;   BMIX     =  1.00
     AMIX_MAG =   1.60;   BMIX_MAG =  1.00
     AMIN     =   0.10
     WC   =   100.;   INIMIX=   1;  MIXPRE=   1;  MAXMIX= -45

 Intra band minimization:
   WEIMIN = 0.0000     energy-eigenvalue tresh-hold
   EBREAK =  0.16E-07  absolut break condition
   DEPER  =   0.30     relativ break condition  

   TIME   =   0.40     timestep for ELM

  volume/ion in A,a.u.               =     129.61       874.63
  Fermi-wavevector in a.u.,A,eV,Ry     =   0.646988  1.222629  5.695303  0.418593
  Thomas-Fermi vector in A             =   1.715149
 
 Write flags
   LWAVE        =      F    write WAVECAR
   LDOWNSAMPLE  =      F    k-point downsampling of WAVECAR
   LCHARG       =      F    write CHGCAR
   LVTOT        =      F    write LOCPOT, total local potential
   LVHAR        =      F    write LOCPOT, Hartree potential only
   LELF         =      F    write electronic localiz. function (ELF)
   LORBIT       =     10    0 simple, 1 ext, 2 COOP (PROOUT), +10 PAW based schemes


 Dipole corrections
   LMONO  =      F    monopole corrections only (constant potential shift)
   LDIPOL =      F    correct potential (dipole corrections)
   IDIPOL =      0    1-x, 2-y, 3-z, 4-all directions 
   EPSILON=  1.0000000 bulk dielectric constant

 LDA+U is selected, type is set to LDAUTYPE =  2
   angular momentum for each species LDAUL =     3   -1
   U (eV)           for each species LDAUU =   5.0  0.0
   J (eV)           for each species LDAUJ =   0.0  0.0
 Exchange correlation treatment:
   GGA     =    PE    GGA type
   LEXCH   =     8    internal setting for exchange type
   VOSKOWN=      0    Vosko Wilk Nusair interpolation
   LHFCALC =     F    Hartree Fock is set to
   LHFONE  =     F    Hartree Fock one center treatment
   AEXX    =    0.0000 exact exchange contribution

 Linear response parameters
   LEPSILON=     F    determine dielectric tensor
   LRPA    =     F    only Hartree local field effects (RPA)
   LNABLA  =     F    use nabla operator in PAW spheres
   LVEL    =     F    velocity operator in full k-point grid
   LINTERFAST=   F  fast interpolation
   KINTER  =     0    interpolate to denser k-point grid
   CSHIFT  =0.1000    complex shift for real part using Kramers Kronig
   OMEGAMAX=  -1.0    maximum frequency
   DEG_THRESHOLD= 0.2000000E-02 threshold for treating states as degnerate
   RTIME   =   -0.100 relaxation time in fs
  (WPLASMAI=    0.000 imaginary part of plasma frequency in eV, 0.658/RTIME)
   DFIELD  = 0.0000000 0.0000000 0.0000000 field for delta impulse in time
 
 Orbital magnetization related:
   ORBITALMAG=     F  switch on orbital magnetization
   LCHIMAG   =     F  perturbation theory with respect to B field
   DQ        =  0.001000  dq finite difference perturbation B field
   LLRAUG    =     F  two centre corrections for induced B field



--------------------------------------------------------------------------------------------------------


 Static calculation
 charge density and potential will be updated during run
 non-spin polarized calculation
 Variant of blocked Davidson
 Davidson routine will perform the subspace rotation
 perform sub-space diagonalisation
    after iterative eigenvector-optimisation
 modified Broyden-mixing scheme, WC =      100.0
 initial mixing is a Kerker type mixing with AMIX =  0.4000 and BMIX =      1.0000
 Hartree-type preconditioning will be used
 using additional bands            4
 reciprocal scheme for non local part
 use partial core corrections
 calculate Harris-corrections to forces 
   (improved forces if not selfconsistent)
 use gradient corrections 
 use of overlap-Matrix (Vanderbilt PP)
 Gauss-broadening in eV      SIGMA  =   0.00


--------------------------------------------------------------------------------------------------------


  energy-cutoff  :      400.00
  volume of cell :      388.82
      direct lattice vectors                 reciprocal lattice vectors
     3.642448451  0.000000000  0.000000000     0.274540605  0.158506092  0.000000000
    -1.821224226  3.154452891  0.000000000     0.000000000  0.317012184  0.000000000
     0.000000000  0.000000000 33.840000000     0.000000000  0.000000000  0.029550827

  length of vectors
     3.642448451  3.642448451 33.840000000     0.317012184  0.317012184  0.029550827


 
 k-points in units of 2pi/SCALE and weight: 1x1x1                                   
   0.00000000  0.00000000  0.00000000       0.016
   0.03225852  0.01862447  0.00000000       0.094
   0.06451704  0.03724893  0.00000000       0.094
   0.09677556  0.05587340  0.00000000       0.094
   0.12903408  0.07449786  0.00000000       0.047
   0.03225852  0.05587340  0.00000000       0.094
   0.06451704  0.07449786  0.00000000       0.188
   0.09677556  0.09312233  0.00000000       0.188
   0.06451704  0.11174679  0.00000000       0.094
   0.09677556  0.13037126  0.00000000       0.094
 
 k-points in reciprocal lattice and weights: 1x1x1                                   
   0.00000000  0.00000000  0.00000000       0.016
   0.12500000 -0.00000000  0.00000000       0.094
   0.25000000 -0.00000000  0.00000000       0.094
   0.37500000 -0.00000000  0.00000000       0.094
   0.50000000 -0.00000000  0.00000000       0.047
   0.12500000  0.12500000  0.00000000       0.094
   0.25000000  0.12500000  0.00000000       0.188
   0.37500000  0.12500000  0.00000000       0.188
   0.25000000  0.25000000  0.00000000       0.094
   0.37500000  0.25000000  0.00000000       0.094
 
 position of ions in fractional coordinates (direct lattice) 
   0.00000000  0.00000000  0.00000000
   0.33333300  0.66666600  0.02197140
   0.66666600  0.33333300  0.97802860
 
 position of ions in cartesian coordinates  (Angst):
   0.00000000  0.00000000  0.00000000
   0.00000000  2.10296649  0.74351218
   1.82122240  1.05148325 33.09648782
 


--------------------------------------------------------------------------------------------------------


 k-point  1 :   0.0000 0.0000 0.0000  plane waves:    6981
 k-point  2 :   0.1250-0.0000 0.0000  plane waves:    6993
 k-point  3 :   0.2500-0.0000 0.0000  plane waves:    7038
 k-point  4 :   0.3750-0.0000 0.0000  plane waves:    7058
 k-point  5 :   0.5000-0.0000 0.0000  plane waves:    7072
 k-point  6 :   0.1250 0.1250 0.0000  plane waves:    7016
 k-point  7 :   0.2500 0.1250 0.0000  plane waves:    7095
 k-point  8 :   0.3750 0.1250 0.0000  plane waves:    7078
 k-point  9 :   0.2500 0.2500 0.0000  plane waves:    7094
 k-point 10 :   0.3750 0.2500 0.0000  plane waves:    7114

 maximum and minimum number of plane-waves per node :       463      423

 maximum number of plane-waves:      7114
 maximum index in each direction: 
   IXMAX=    5   IYMAX=    5   IZMAX=   55
   IXMIN=   -6   IYMIN=   -6   IZMIN=  -55


 parallel 3D FFT for wavefunctions:
    minimum data exchange during FFTs selected (reduces bandwidth)
 parallel 3D FFT for charge:
    minimum data exchange during FFTs selected (reduces bandwidth)


 total amount of memory used by VASP MPI-rank0    40936. kBytes
=======================================================================

   base      :      30000. kBytes
   nonl-proj :       2304. kBytes
   fftplans  :       5126. kBytes
   grid      :       2846. kBytes
   one-center:         49. kBytes
   wavefun   :        611. kBytes
 
     INWAV:  cpu time    0.0000: real time    0.0000
 Broyden mixing: mesh for mixing (old mesh)
   NGX = 11   NGY = 11   NGZ =111
  (NGX  = 48   NGY  = 48   NGZ  =448)
  gives a total of  13431 points

 initial charge density was supplied:
 charge density of overlapping atoms calculated
 number of electron      24.0000000 magnetization 
 keeping initial charge density in first step


--------------------------------------------------------------------------------------------------------


 Maximum index for augmentation-charges         3871 (set IRDMAX)


--------------------------------------------------------------------------------------------------------


 First call to EWALD:  gamma=   0.243
 Maximum number of real-space cells 6x 6x 1
 Maximum number of reciprocal cells 2x 2x11

    FEWALD:  cpu time    0.0013: real time    0.0014


--------------------------------------- Iteration      1(   1)  ---------------------------------------


    POTLOK:  cpu time    0.0222: real time    0.0235
    SETDIJ:  cpu time    0.3955: real time    0.3961
atom =   1  type =  1  l = 3
 
 onsite density matrix
 
spin component  1
 
  0.0699  0.0000  0.0000  0.0000  0.0000  0.0000  0.0000
  0.0000  0.0699  0.0000  0.0000  0.0000  0.0000  0.0000
  0.0000  0.0000  0.0699  0.0000  0.0000  0.0000  0.0000
  0.0000  0.0000  0.0000  0.0699  0.0000 -0.0000  0.0000
  0.0000  0.0000  0.0000  0.0000  0.0699  0.0000  0.0000
  0.0000  0.0000  0.0000 -0.0000  0.0000  0.0699  0.0000
  0.0000  0.0000  0.0000  0.0000  0.0000  0.0000  0.0699
 
spin component  2
 
  0.0699  0.0000  0.0000  0.0000  0.0000  0.0000  0.0000
  0.0000  0.0699  0.0000  0.0000  0.0000  0.0000  0.0000
  0.0000  0.0000  0.0699  0.0000  0.0000  0.0000  0.0000
  0.0000  0.0000  0.0000  0.0699  0.0000 -0.0000  0.0000
  0.0000  0.0000  0.0000  0.0000  0.0699  0.0000  0.0000
  0.0000  0.0000  0.0000 -0.0000  0.0000  0.0699  0.0000
  0.0000  0.0000  0.0000  0.0000  0.0000  0.0000  0.0699
 
 occupancies and eigenvectors
 
  o =  0.0699  v =  0.0000  0.0000 -1.0000  0.0000  0.0000  0.0000  0.0000  0.0000  0.0000  0.0000  0.0000  0.0000  0.0000  0.0000      0.0000  0.0000  0.0000  0.0000  0.0000  0.0000  0.0000  0.0000  0.0000  0.0000  0.0000  0.0000  0.0000  0.0000
  o =  0.0699  v =  0.0000 -1.0000  0.0000  0.0000  0.0000  0.0000  0.0000  0.0000  0.0000  0.0000  0.0000  0.0000  0.0000  0.0000      0.0000  0.0000  0.0000  0.0000  0.0000  0.0000  0.0000  0.0000  0.0000  0.0000  0.0000  0.0000  0.0000  0.0000
  o =  0.0699  v =  0.0000  0.0000  0.0000  1.0000  0.0000  0.0000  0.0000  0.0000  0.0000  0.0000  0.0000  0.0000  0.0000  0.0000      0.0000  0.0000  0.0000  0.0000  0.0000  0.0000  0.0000  0.0000  0.0000  0.0000  0.0000  0.0000  0.0000  0.0000
  o =  0.0699  v =  0.0000  0.0000  0.0000  0.0000  0.0000  1.0000  0.0000  0.0000  0.0000  0.0000  0.0000  0.0000  0.0000  0.0000      0.0000  0.0000  0.0000  0.0000  0.0000  0.0000  0.0000  0.0000  0.0000  0.0000  0.0000  0.0000  0.0000  0.0000
  o =  0.0699  v =  0.0000  0.0000  0.0000  0.0000  1.0000  0.0000  0.0000  0.0000  0.0000  0.0000  0.0000  0.0000  0.0000  0.0000      0.0000  0.0000  0.0000  0.0000  0.0000  0.0000  0.0000  0.0000  0.0000  0.0000  0.0000  0.0000  0.0000  0.0000
  o =  0.0699  v =  0.0000  0.0000  0.0000  0.0000  0.0000  0.0000  0.0000  0.0000  0.0000 -1.0000  0.0000  0.0000  0.0000  0.0000      0.0000  0.0000  0.0000  0.0000  0.0000  0.0000  0.0000  0.0000  0.0000  0.0000  0.0000  0.0000  0.0000  0.0000
  o =  0.0699  v =  0.0000  0.0000  0.0000  0.0000  0.0000  0.0000  0.0000  0.0000 -1.0000  0.0000  0.0000  0.0000  0.0000  0.0000      0.0000  0.0000  0.0000  0.0000  0.0000  0.0000  0.0000  0.0000  0.0000  0.0000  0.0000  0.0000  0.0000  0.0000
  o =  0.0699  v =  0.0000  0.0000  0.0000  0.0000  0.0000  0.0000  0.0000  0.0000  0.0000  0.0000  1.0000  0.0000  0.0000  0.0000      0.0000  0.0000  0.0000  0.0000  0.0000  0.0000  0.0000  0.0000  0.0000  0.0000  0.0000  0.0000  0.0000  0.0000
  o =  0.0699  v =  0.0000  0.0000  0.0000  0.0000  0.0000  0.0000  0.0000  0.0000  0.0000  0.0000  0.0000  0.0000  1.0000  0.0000      0.0000  0.0000  0.0000  0.0000  0.0000  0.0000  0.0000  0.0000  0.0000  0.0000  0.0000  0.0000  0.0000  0.0000
  o =  0.0699  v =  0.0000  0.0000  0.0000  0.0000  0.0000  0.0000  0.0000  0.0000  0.0000  0.0000  0.0000  1.0000  0.0000  0.0000      0.0000  0.0000  0.0000  0.0000  0.0000  0.0000  0.0000  0.0000  0.0000  0.0000  0.0000  0.0000  0.0000  0.0000
  o =  0.0699  v =  0.0000  0.0000  0.0000  0.0000  0.0000  0.0000  0.0000  1.0000  0.0000  0.0000  0.0000  0.0000  0.0000  0.0000      0.0000  0.0000  0.0000  0.0000  0.0000  0.0000  0.0000  0.0000  0.0000  0.0000  0.0000  0.0000  0.0000  0.0000
  o =  0.0699  v =  1.0000  0.0000  0.0000  0.0000  0.0000  0.0000  0.0000  0.0000  0.0000  0.0000  0.0000  0.0000  0.0000  0.0000      0.0000  0.0000  0.0000  0.0000  0.0000  0.0000  0.0000  0.0000  0.0000  0.0000  0.0000  0.0000  0.0000  0.0000
  o =  0.0699  v =  0.0000  0.0000  0.0000  0.0000  0.0000  0.0000  1.0000  0.0000  0.0000  0.0000  0.0000  0.0000  0.0000  0.0000      0.0000  0.0000  0.0000  0.0000  0.0000  0.0000  0.0000  0.0000  0.0000  0.0000  0.0000  0.0000  0.0000  0.0000
  o =  0.0699  v =  0.0000  0.0000  0.0000  0.0000  0.0000  0.0000  0.0000  0.0000  0.0000  0.0000  0.0000  0.0000  0.0000  1.0000      0.0000  0.0000  0.0000  0.0000  0.0000  0.0000  0.0000  0.0000  0.0000  0.0000  0.0000  0.0000  0.0000  0.0000
     EDDAV:  cpu time    0.1207: real time    0.1215
       DOS:  cpu time    0.0006: real time    0.0006
    --------------------------------------------
      LOOP:  cpu time    0.5390: real time    0.5418

 eigenvalue-minimisations  :   352
 total energy-change (2. order) : 0.2977897E+03  (-0.7329280E+03)
 number of electron      24.0000000 magnetization 
 augmentation part       24.0000000 magnetization 

 Free energy of the ion-electron system (eV)
  ---------------------------------------------------
  alpha Z        PSCENC =        13.68504980
  Ewald energy   TEWEN  =      9451.41527995
  -Hartree energ DENC   =    -11019.18318616
  -exchange      EXHF   =         0.00000000
  -V(xc)+E(xc)   XCENC  =        60.36674153
  PAW double counting   =      1543.93901975    -1523.11966362
  entropy T*S    EENTRO =        -0.00000331
  eigenvalues    EBANDS =      -156.88092712
  atomic energy  EATOM  =      1927.56740593
  Solvation  Ediel_sol  =         0.00000000
  ---------------------------------------------------
  free energy    TOTEN  =       297.78971674 eV

  energy without entropy =      297.78972006  energy(sigma->0) =      297.78971840


--------------------------------------------------------------------------------------------------------




--------------------------------------- Iteration      1(   2)  ---------------------------------------


     EDDAV:  cpu time    0.1843: real time    0.1847
       DOS:  cpu time    0.0001: real time    0.0001
    --------------------------------------------
      LOOP:  cpu time    0.1844: real time    0.1848

 eigenvalue-minimisations  :   608
 total energy-change (2. order) :-0.2598353E+03  (-0.2520847E+03)
 number of electron      24.0000000 magnetization 
 augmentation part       24.0000000 magnetization 

 Free energy of the ion-electron system (eV)
  ---------------------------------------------------
  alpha Z        PSCENC =        13.68504980
  Ewald energy   TEWEN  =      9451.41527995
  -Hartree energ DENC   =    -11019.18318616
  -exchange      EXHF   =         0.00000000
  -V(xc)+E(xc)   XCENC  =        60.36674153
  PAW double counting   =      1543.93901975    -1523.11966362
  entropy T*S    EENTRO =         0.00000000
  eigenvalues    EBANDS =      -416.71620479
  atomic energy  EATOM  =      1927.56740593
  Solvation  Ediel_sol  =         0.00000000
  ---------------------------------------------------
  free energy    TOTEN  =        37.95444239 eV

  energy without entropy =       37.95444239  energy(sigma->0) =       37.95444239


--------------------------------------------------------------------------------------------------------




--------------------------------------- Iteration      1(   3)  ---------------------------------------


     EDDAV:  cpu time    0.1250: real time    0.1253
       DOS:  cpu time    0.0001: real time    0.0001
    --------------------------------------------
      LOOP:  cpu time    0.1252: real time    0.1254

 eigenvalue-minimisations  :   408
 total energy-change (2. order) :-0.6594582E+02  (-0.6591018E+02)
 number of electron      24.0000000 magnetization 
 augmentation part       24.0000000 magnetization 

 Free energy of the ion-electron system (eV)
  ---------------------------------------------------
  alpha Z        PSCENC =        13.68504980
  Ewald energy   TEWEN  =      9451.41527995
  -Hartree energ DENC   =    -11019.18318616
  -exchange      EXHF   =         0.00000000
  -V(xc)+E(xc)   XCENC  =        60.36674153
  PAW double counting   =      1543.93901975    -1523.11966362
  entropy T*S    EENTRO =         0.00000000
  eigenvalues    EBANDS =      -482.66202896
  atomic energy  EATOM  =      1927.56740593
  Solvation  Ediel_sol  =         0.00000000
  ---------------------------------------------------
  free energy    TOTEN  =       -27.99138179 eV

  energy without entropy =      -27.99138179  energy(sigma->0) =      -27.99138179


--------------------------------------------------------------------------------------------------------




--------------------------------------- Iteration      1(   4)  ---------------------------------------


     EDDAV:  cpu time    0.1578: real time    0.1581
       DOS:  cpu time    0.0002: real time    0.0002
    --------------------------------------------
      LOOP:  cpu time    0.1580: real time    0.1583

 eigenvalue-minimisations  :   512
 total energy-change (2. order) :-0.2935955E+01  (-0.2934888E+01)
 number of electron      24.0000000 magnetization 
 augmentation part       24.0000000 magnetization 

 Free energy of the ion-electron system (eV)
  ---------------------------------------------------
  alpha Z        PSCENC =        13.68504980
  Ewald energy   TEWEN  =      9451.41527995
  -Hartree energ DENC   =    -11019.18318616
  -exchange      EXHF   =         0.00000000
  -V(xc)+E(xc)   XCENC  =        60.36674153
  PAW double counting   =      1543.93901975    -1523.11966362
  entropy T*S    EENTRO =         0.00000000
  eigenvalues    EBANDS =      -485.59798399
  atomic energy  EATOM  =      1927.56740593
  Solvation  Ediel_sol  =         0.00000000
  ---------------------------------------------------
  free energy    TOTEN  =       -30.92733681 eV

  energy without entropy =      -30.92733681  energy(sigma->0) =      -30.92733681


--------------------------------------------------------------------------------------------------------




--------------------------------------- Iteration      1(   5)  ---------------------------------------


     EDDAV:  cpu time    0.1455: real time    0.1458
       DOS:  cpu time    0.0001: real time    0.0001
    CHARGE:  cpu time    0.0391: real time    0.0392
    MIXING:  cpu time    0.0034: real time    0.0035
    --------------------------------------------
      LOOP:  cpu time    0.1882: real time    0.1887

 eigenvalue-minimisations  :   488
 total energy-change (2. order) :-0.1525381E+00  (-0.1524743E+00)
 number of electron      24.0000000 magnetization 
 augmentation part       -0.2146408 magnetization 

 Broyden mixing:
  rms(total) = 0.33225E+01    rms(broyden)= 0.33222E+01
  rms(prec ) = 0.33519E+01
  weight for this iteration     100.00

 Free energy of the ion-electron system (eV)
  ---------------------------------------------------
  alpha Z        PSCENC =        13.68504980
  Ewald energy   TEWEN  =      9451.41527995
  -Hartree energ DENC   =    -11019.18318616
  -exchange      EXHF   =         0.00000000
  -V(xc)+E(xc)   XCENC  =        60.36674153
  PAW double counting   =      1543.93901975    -1523.11966362
  entropy T*S    EENTRO =         0.00000000
  eigenvalues    EBANDS =      -485.75052207
  atomic energy  EATOM  =      1927.56740593
  Solvation  Ediel_sol  =         0.00000000
  ---------------------------------------------------
  free energy    TOTEN  =       -31.07987490 eV

  energy without entropy =      -31.07987490  energy(sigma->0) =      -31.07987490


--------------------------------------------------------------------------------------------------------




--------------------------------------- Iteration      1(   6)  ---------------------------------------


    POTLOK:  cpu time    0.0167: real time    0.0167
    SETDIJ:  cpu time    0.4093: real time    0.4100
atom =   1  type =  1  l = 3
 
 onsite density matrix
 
spin component  1
 
  0.0609 -0.0000 -0.0000  0.0096  0.0000 -0.0000 -0.0000
 -0.0000  0.0506  0.0000  0.0000  0.0008 -0.0000 -0.0000
 -0.0000  0.0000  0.0457 -0.0000  0.0000  0.0008  0.0000
  0.0096  0.0000 -0.0000  0.0486  0.0000 -0.0000 -0.0000
  0.0000  0.0008  0.0000  0.0000  0.0457 -0.0000 -0.0000
 -0.0000 -0.0000  0.0008 -0.0000 -0.0000  0.0506 -0.0000
 -0.0000 -0.0000  0.0000 -0.0000 -0.0000 -0.0000  0.0484
 
spin component  2
 
  0.0609 -0.0000 -0.0000  0.0096  0.0000 -0.0000 -0.0000
 -0.0000  0.0506  0.0000  0.0000  0.0008 -0.0000 -0.0000
 -0.0000  0.0000  0.0457 -0.0000  0.0000  0.0008  0.0000
  0.0096  0.0000 -0.0000  0.0486  0.0000 -0.0000 -0.0000
  0.0000  0.0008  0.0000  0.0000  0.0457 -0.0000 -0.0000
 -0.0000 -0.0000  0.0008 -0.0000 -0.0000  0.0506 -0.0000
 -0.0000 -0.0000  0.0000 -0.0000 -0.0000 -0.0000  0.0484
 
 occupancies and eigenvectors
 
  o =  0.0433  v =  0.4790 -0.0000  0.0000 -0.8778  0.0000 -0.0000 -0.0000  0.0000  0.0000  0.0000  0.0000  0.0000  0.0000  0.0000      0.0000  0.0000  0.0000  0.0000  0.0000  0.0000  0.0000  0.0000  0.0000  0.0000  0.0000  0.0000  0.0000  0.0000
  o =  0.0433  v =  0.0000  0.0000  0.0000  0.0000  0.0000  0.0000  0.0000  0.4790 -0.0000  0.0000 -0.8778  0.0000 -0.0000 -0.0000      0.0000  0.0000  0.0000  0.0000  0.0000  0.0000  0.0000  0.0000  0.0000  0.0000  0.0000  0.0000  0.0000  0.0000
  o =  0.0456  v =  0.0000  0.0005  0.9871  0.0000 -0.0029 -0.1601 -0.0000  0.0000  0.0000  0.0000  0.0000  0.0000  0.0000  0.0000      0.0000  0.0000  0.0000  0.0000  0.0000  0.0000  0.0000  0.0000  0.0000  0.0000  0.0000  0.0000  0.0000  0.0000
  o =  0.0456  v =  0.0000  0.0000  0.0000  0.0000  0.0000  0.0000  0.0000  0.0000  0.0005  0.9871  0.0000 -0.0029 -0.1601 -0.0000      0.0000  0.0000  0.0000  0.0000  0.0000  0.0000  0.0000  0.0000  0.0000  0.0000  0.0000  0.0000  0.0000  0.0000
  o =  0.0456  v =  0.0000  0.1601 -0.0029 -0.0000 -0.9871  0.0005 -0.0000  0.0000  0.0000  0.0000  0.0000  0.0000  0.0000  0.0000      0.0000  0.0000  0.0000  0.0000  0.0000  0.0000  0.0000  0.0000  0.0000  0.0000  0.0000  0.0000  0.0000  0.0000
  o =  0.0456  v =  0.0000  0.0000  0.0000  0.0000  0.0000  0.0000  0.0000  0.0000  0.1601 -0.0029 -0.0000 -0.9871  0.0005 -0.0000      0.0000  0.0000  0.0000  0.0000  0.0000  0.0000  0.0000  0.0000  0.0000  0.0000  0.0000  0.0000  0.0000  0.0000
  o =  0.0484  v =  0.0000  0.0000  0.0000  0.0000  0.0000  0.0000  0.0000 -0.0000 -0.0000 -0.0000  0.0000  0.0000 -0.0000 -1.0000      0.0000  0.0000  0.0000  0.0000  0.0000  0.0000  0.0000  0.0000  0.0000  0.0000  0.0000  0.0000  0.0000  0.0000
  o =  0.0484  v = -0.0000 -0.0000 -0.0000  0.0000  0.0000 -0.0000 -1.0000  0.0000  0.0000  0.0000  0.0000  0.0000  0.0000  0.0000      0.0000  0.0000  0.0000  0.0000  0.0000  0.0000  0.0000  0.0000  0.0000  0.0000  0.0000  0.0000  0.0000  0.0000
  o =  0.0508  v =  0.0000  0.0000  0.0000  0.0000  0.0000  0.0000  0.0000  0.0000  0.0010  0.1601 -0.0000  0.0002  0.9871 -0.0000      0.0000  0.0000  0.0000  0.0000  0.0000  0.0000  0.0000  0.0000  0.0000  0.0000  0.0000  0.0000  0.0000  0.0000
  o =  0.0508  v =  0.0000  0.0010  0.1601 -0.0000  0.0002  0.9871 -0.0000  0.0000  0.0000  0.0000  0.0000  0.0000  0.0000  0.0000      0.0000  0.0000  0.0000  0.0000  0.0000  0.0000  0.0000  0.0000  0.0000  0.0000  0.0000  0.0000  0.0000  0.0000
  o =  0.0508  v = -0.0000 -0.9871  0.0002  0.0000 -0.1601  0.0010  0.0000  0.0000  0.0000  0.0000  0.0000  0.0000  0.0000  0.0000      0.0000  0.0000  0.0000  0.0000  0.0000  0.0000  0.0000  0.0000  0.0000  0.0000  0.0000  0.0000  0.0000  0.0000
  o =  0.0508  v =  0.0000  0.0000  0.0000  0.0000  0.0000  0.0000  0.0000 -0.0000 -0.9871  0.0002  0.0000 -0.1601  0.0010  0.0000      0.0000  0.0000  0.0000  0.0000  0.0000  0.0000  0.0000  0.0000  0.0000  0.0000  0.0000  0.0000  0.0000  0.0000
  o =  0.0662  v =  0.0000  0.0000  0.0000  0.0000  0.0000  0.0000  0.0000 -0.8778  0.0000  0.0000 -0.4790 -0.0000  0.0000  0.0000      0.0000  0.0000  0.0000  0.0000  0.0000  0.0000  0.0000  0.0000  0.0000  0.0000  0.0000  0.0000  0.0000  0.0000
  o =  0.0662  v = -0.8778  0.0000  0.0000 -0.4790 -0.0000  0.0000  0.0000  0.0000  0.0000  0.0000  0.0000  0.0000  0.0000  0.0000      0.0000  0.0000  0.0000  0.0000  0.0000  0.0000  0.0000  0.0000  0.0000  0.0000  0.0000  0.0000  0.0000  0.0000
     EDDAV:  cpu time    0.1469: real time    0.1472
       DOS:  cpu time    0.0003: real time    0.0003
    CHARGE:  cpu time    0.0391: real time    0.0392
    MIXING:  cpu time    0.0015: real time    0.0015
    --------------------------------------------
      LOOP:  cpu time    0.6137: real time    0.6149

 eigenvalue-minimisations  :   480
 total energy-change (2. order) : 0.6601794E+01  (-0.7319986E+01)
 number of electron      24.0000000 magnetization 
 augmentation part        0.2254714 magnetization 

 Broyden mixing:
  rms(total) = 0.12148E+01    rms(broyden)= 0.12135E+01
  rms(prec ) = 0.12523E+01
  weight for this iteration     100.00

 eigenvalues of (default mixing * dielectric matrix)
  average eigenvalue GAMMA=   0.8941
  0.8941

 Free energy of the ion-electron system (eV)
  ---------------------------------------------------
  alpha Z        PSCENC =        13.68504980
  Ewald energy   TEWEN  =      9451.41527995
  -Hartree energ DENC   =    -11069.16182866
  -exchange      EXHF   =         0.00000000
  -V(xc)+E(xc)   XCENC  =        63.36321003
  PAW double counting   =      1703.55866318    -1681.93828101
  entropy T*S    EENTRO =         0.00000000
  eigenvalues    EBANDS =      -432.96757964
  atomic energy  EATOM  =      1927.56740593
  Solvation  Ediel_sol  =         0.00000000
  ---------------------------------------------------
  free energy    TOTEN  =       -24.47808042 eV

  energy without entropy =      -24.47808042  energy(sigma->0) =      -24.47808042


--------------------------------------------------------------------------------------------------------




--------------------------------------- Iteration      1(   7)  ---------------------------------------


    POTLOK:  cpu time    0.0164: real time    0.0164
    SETDIJ:  cpu time    0.4004: real time    0.4010
atom =   1  type =  1  l = 3
 
 onsite density matrix
 
spin component  1
 
  0.1303 -0.0000 -0.0000  0.0448 -0.0000 -0.0000  0.0000
 -0.0000  0.0873 -0.0000  0.0000  0.0034 -0.0000 -0.0000
 -0.0000 -0.0000  0.0548 -0.0000  0.0000  0.0034  0.0000
  0.0448  0.0000 -0.0000  0.0594 -0.0000 -0.0000  0.0000
 -0.0000  0.0034  0.0000 -0.0000  0.0548  0.0000 -0.0000
 -0.0000 -0.0000  0.0034 -0.0000  0.0000  0.0873 -0.0000
  0.0000 -0.0000  0.0000  0.0000 -0.0000 -0.0000  0.0631
 
spin component  2
 
  0.1303 -0.0000 -0.0000  0.0448 -0.0000 -0.0000  0.0000
 -0.0000  0.0873 -0.0000  0.0000  0.0034 -0.0000 -0.0000
 -0.0000 -0.0000  0.0548 -0.0000  0.0000  0.0034  0.0000
  0.0448  0.0000 -0.0000  0.0594 -0.0000 -0.0000  0.0000
 -0.0000  0.0034  0.0000 -0.0000  0.0548  0.0000 -0.0000
 -0.0000 -0.0000  0.0034 -0.0000  0.0000  0.0873 -0.0000
  0.0000 -0.0000  0.0000  0.0000 -0.0000 -0.0000  0.0631
 
 occupancies and eigenvectors
 
  o =  0.0377  v =  0.4353  0.0000  0.0000 -0.9003 -0.0000 -0.0000 -0.0000  0.0000  0.0000  0.0000  0.0000  0.0000  0.0000  0.0000      0.0000  0.0000  0.0000  0.0000  0.0000  0.0000  0.0000  0.0000  0.0000  0.0000  0.0000  0.0000  0.0000  0.0000
  o =  0.0377  v =  0.0000  0.0000  0.0000  0.0000  0.0000  0.0000  0.0000  0.4353  0.0000  0.0000 -0.9003 -0.0000 -0.0000 -0.0000      0.0000  0.0000  0.0000  0.0000  0.0000  0.0000  0.0000  0.0000  0.0000  0.0000  0.0000  0.0000  0.0000  0.0000
  o =  0.0545  v =  0.0000  0.0000  0.9946  0.0000 -0.0003 -0.1033 -0.0000  0.0000  0.0000  0.0000  0.0000  0.0000  0.0000  0.0000      0.0000  0.0000  0.0000  0.0000  0.0000  0.0000  0.0000  0.0000  0.0000  0.0000  0.0000  0.0000  0.0000  0.0000
  o =  0.0545  v =  0.0000  0.0000  0.0000  0.0000  0.0000  0.0000  0.0000  0.0000  0.0000  0.9946  0.0000 -0.0003 -0.1033 -0.0000      0.0000  0.0000  0.0000  0.0000  0.0000  0.0000  0.0000  0.0000  0.0000  0.0000  0.0000  0.0000  0.0000  0.0000
  o =  0.0545  v = -0.0000  0.1033 -0.0003  0.0000 -0.9946  0.0000 -0.0000  0.0000  0.0000  0.0000  0.0000  0.0000  0.0000  0.0000      0.0000  0.0000  0.0000  0.0000  0.0000  0.0000  0.0000  0.0000  0.0000  0.0000  0.0000  0.0000  0.0000  0.0000
  o =  0.0545  v =  0.0000  0.0000  0.0000  0.0000  0.0000  0.0000  0.0000 -0.0000  0.1033 -0.0003  0.0000 -0.9946  0.0000 -0.0000      0.0000  0.0000  0.0000  0.0000  0.0000  0.0000  0.0000  0.0000  0.0000  0.0000  0.0000  0.0000  0.0000  0.0000
  o =  0.0631  v =  0.0000  0.0000  0.0000  0.0000  0.0000  0.0000  0.0000 -0.0000  0.0000  0.0000 -0.0000 -0.0000  0.0000  1.0000      0.0000  0.0000  0.0000  0.0000  0.0000  0.0000  0.0000  0.0000  0.0000  0.0000  0.0000  0.0000  0.0000  0.0000
  o =  0.0631  v = -0.0000  0.0000  0.0000 -0.0000 -0.0000  0.0000  1.0000  0.0000  0.0000  0.0000  0.0000  0.0000  0.0000  0.0000      0.0000  0.0000  0.0000  0.0000  0.0000  0.0000  0.0000  0.0000  0.0000  0.0000  0.0000  0.0000  0.0000  0.0000
  o =  0.0877  v =  0.0000  0.0000  0.0000  0.0000  0.0000  0.0000  0.0000  0.0000  0.0022  0.1033 -0.0000  0.0002  0.9946 -0.0000      0.0000  0.0000  0.0000  0.0000  0.0000  0.0000  0.0000  0.0000  0.0000  0.0000  0.0000  0.0000  0.0000  0.0000
  o =  0.0877  v =  0.0000  0.0022  0.1033 -0.0000  0.0002  0.9946 -0.0000  0.0000  0.0000  0.0000  0.0000  0.0000  0.0000  0.0000      0.0000  0.0000  0.0000  0.0000  0.0000  0.0000  0.0000  0.0000  0.0000  0.0000  0.0000  0.0000  0.0000  0.0000
  o =  0.0877  v =  0.0000  0.0000  0.0000  0.0000  0.0000  0.0000  0.0000  0.0000 -0.9946  0.0002 -0.0000 -0.1033  0.0022  0.0000      0.0000  0.0000  0.0000  0.0000  0.0000  0.0000  0.0000  0.0000  0.0000  0.0000  0.0000  0.0000  0.0000  0.0000
  o =  0.0877  v =  0.0000 -0.9946  0.0002 -0.0000 -0.1033  0.0022  0.0000  0.0000  0.0000  0.0000  0.0000  0.0000  0.0000  0.0000      0.0000  0.0000  0.0000  0.0000  0.0000  0.0000  0.0000  0.0000  0.0000  0.0000  0.0000  0.0000  0.0000  0.0000
  o =  0.1520  v = -0.9003 -0.0000  0.0000 -0.4353  0.0000  0.0000 -0.0000  0.0000  0.0000  0.0000  0.0000  0.0000  0.0000  0.0000      0.0000  0.0000  0.0000  0.0000  0.0000  0.0000  0.0000  0.0000  0.0000  0.0000  0.0000  0.0000  0.0000  0.0000
  o =  0.1520  v =  0.0000  0.0000  0.0000  0.0000  0.0000  0.0000  0.0000 -0.9003 -0.0000  0.0000 -0.4353  0.0000  0.0000 -0.0000      0.0000  0.0000  0.0000  0.0000  0.0000  0.0000  0.0000  0.0000  0.0000  0.0000  0.0000  0.0000  0.0000  0.0000
     EDDAV:  cpu time    0.1474: real time    0.1477
       DOS:  cpu time    0.0002: real time    0.0002
    CHARGE:  cpu time    0.0391: real time    0.0392
    MIXING:  cpu time    0.0024: real time    0.0024
    --------------------------------------------
      LOOP:  cpu time    0.6058: real time    0.6069

 eigenvalue-minimisations  :   464
 total energy-change (2. order) :-0.6625780E+00  (-0.6767541E+01)
 number of electron      24.0000000 magnetization 
 augmentation part       -0.4819312 magnetization 

 Broyden mixing:
  rms(total) = 0.19556E+01    rms(broyden)= 0.19554E+01
  rms(prec ) = 0.19678E+01
  weight for this iteration     100.00

 eigenvalues of (default mixing * dielectric matrix)
  average eigenvalue GAMMA=   1.7821
  3.0464  0.5178

 Free energy of the ion-electron system (eV)
  ---------------------------------------------------
  alpha Z        PSCENC =        13.68504980
  Ewald energy   TEWEN  =      9451.41527995
  -Hartree energ DENC   =    -11075.83631625
  -exchange      EXHF   =         0.00000000
  -V(xc)+E(xc)   XCENC  =        62.37483962
  PAW double counting   =      1779.00843407    -1758.62420102
  entropy T*S    EENTRO =         0.00000000
  eigenvalues    EBANDS =      -424.73115048
  atomic energy  EATOM  =      1927.56740593
  Solvation  Ediel_sol  =         0.00000000
  ---------------------------------------------------
  free energy    TOTEN  =       -25.14065839 eV

  energy without entropy =      -25.14065839  energy(sigma->0) =      -25.14065839


--------------------------------------------------------------------------------------------------------




--------------------------------------- Iteration      1(   8)  ---------------------------------------


    POTLOK:  cpu time    0.0167: real time    0.0167
    SETDIJ:  cpu time    0.3883: real time    0.3890
atom =   1  type =  1  l = 3
 
 onsite density matrix
 
spin component  1
 
  0.1529 -0.0000 -0.0000  0.0716 -0.0000 -0.0000  0.0000
 -0.0000  0.0842 -0.0000  0.0000  0.0054 -0.0000 -0.0000
 -0.0000 -0.0000  0.0351 -0.0000  0.0000  0.0054  0.0000
  0.0716  0.0000 -0.0000  0.0455 -0.0000 -0.0000  0.0000
 -0.0000  0.0054  0.0000 -0.0000  0.0351  0.0000 -0.0000
 -0.0000 -0.0000  0.0054 -0.0000  0.0000  0.0842 -0.0000
  0.0000 -0.0000  0.0000  0.0000 -0.0000 -0.0000  0.0500
 
spin component  2
 
  0.1529 -0.0000 -0.0000  0.0716 -0.0000 -0.0000  0.0000
 -0.0000  0.0842 -0.0000  0.0000  0.0054 -0.0000 -0.0000
 -0.0000 -0.0000  0.0351 -0.0000  0.0000  0.0054  0.0000
  0.0716  0.0000 -0.0000  0.0455 -0.0000 -0.0000  0.0000
 -0.0000  0.0054  0.0000 -0.0000  0.0351  0.0000 -0.0000
 -0.0000 -0.0000  0.0054 -0.0000  0.0000  0.0842 -0.0000
  0.0000 -0.0000  0.0000  0.0000 -0.0000 -0.0000  0.0500
 
 occupancies and eigenvectors
 
  o =  0.0097  v =  0.4474  0.0000  0.0000 -0.8943  0.0000 -0.0000 -0.0000  0.0000  0.0000  0.0000  0.0000  0.0000  0.0000  0.0000      0.0000  0.0000  0.0000  0.0000  0.0000  0.0000  0.0000  0.0000  0.0000  0.0000  0.0000  0.0000  0.0000  0.0000
  o =  0.0097  v =  0.0000  0.0000  0.0000  0.0000  0.0000  0.0000  0.0000  0.4474  0.0000  0.0000 -0.8943  0.0000 -0.0000 -0.0000      0.0000  0.0000  0.0000  0.0000  0.0000  0.0000  0.0000  0.0000  0.0000  0.0000  0.0000  0.0000  0.0000  0.0000
  o =  0.0345  v =  0.0000  0.0000  0.9941  0.0000 -0.0000 -0.1084 -0.0000  0.0000  0.0000  0.0000  0.0000  0.0000  0.0000  0.0000      0.0000  0.0000  0.0000  0.0000  0.0000  0.0000  0.0000  0.0000  0.0000  0.0000  0.0000  0.0000  0.0000  0.0000
  o =  0.0345  v =  0.0000  0.0000  0.0000  0.0000  0.0000  0.0000  0.0000  0.0000  0.0000  0.9941  0.0000 -0.0000 -0.1084 -0.0000      0.0000  0.0000  0.0000  0.0000  0.0000  0.0000  0.0000  0.0000  0.0000  0.0000  0.0000  0.0000  0.0000  0.0000
  o =  0.0345  v = -0.0000  0.1084 -0.0000 -0.0000 -0.9941  0.0000 -0.0000  0.0000  0.0000  0.0000  0.0000  0.0000  0.0000  0.0000      0.0000  0.0000  0.0000  0.0000  0.0000  0.0000  0.0000  0.0000  0.0000  0.0000  0.0000  0.0000  0.0000  0.0000
  o =  0.0345  v =  0.0000  0.0000  0.0000  0.0000  0.0000  0.0000  0.0000 -0.0000  0.1084 -0.0000 -0.0000 -0.9941  0.0000 -0.0000      0.0000  0.0000  0.0000  0.0000  0.0000  0.0000  0.0000  0.0000  0.0000  0.0000  0.0000  0.0000  0.0000  0.0000
  o =  0.0500  v =  0.0000  0.0000  0.0000  0.0000  0.0000  0.0000  0.0000 -0.0000  0.0000  0.0000 -0.0000 -0.0000  0.0000  1.0000      0.0000  0.0000  0.0000  0.0000  0.0000  0.0000  0.0000  0.0000  0.0000  0.0000  0.0000  0.0000  0.0000  0.0000
  o =  0.0500  v = -0.0000  0.0000  0.0000 -0.0000 -0.0000  0.0000  1.0000  0.0000  0.0000  0.0000  0.0000  0.0000  0.0000  0.0000      0.0000  0.0000  0.0000  0.0000  0.0000  0.0000  0.0000  0.0000  0.0000  0.0000  0.0000  0.0000  0.0000  0.0000
  o =  0.0848  v =  0.0000  0.0000  0.0000  0.0000  0.0000  0.0000  0.0000  0.0000  0.0008  0.1084 -0.0000  0.0001  0.9941 -0.0000      0.0000  0.0000  0.0000  0.0000  0.0000  0.0000  0.0000  0.0000  0.0000  0.0000  0.0000  0.0000  0.0000  0.0000
  o =  0.0848  v =  0.0000  0.0008  0.1084 -0.0000  0.0001  0.9941 -0.0000  0.0000  0.0000  0.0000  0.0000  0.0000  0.0000  0.0000      0.0000  0.0000  0.0000  0.0000  0.0000  0.0000  0.0000  0.0000  0.0000  0.0000  0.0000  0.0000  0.0000  0.0000
  o =  0.0848  v =  0.0000  0.0000  0.0000  0.0000  0.0000  0.0000  0.0000  0.0000 -0.9941  0.0001 -0.0000 -0.1084  0.0008  0.0000      0.0000  0.0000  0.0000  0.0000  0.0000  0.0000  0.0000  0.0000  0.0000  0.0000  0.0000  0.0000  0.0000  0.0000
  o =  0.0848  v =  0.0000 -0.9941  0.0001 -0.0000 -0.1084  0.0008  0.0000  0.0000  0.0000  0.0000  0.0000  0.0000  0.0000  0.0000      0.0000  0.0000  0.0000  0.0000  0.0000  0.0000  0.0000  0.0000  0.0000  0.0000  0.0000  0.0000  0.0000  0.0000
  o =  0.1888  v = -0.8943  0.0000  0.0000 -0.4474  0.0000  0.0000 -0.0000  0.0000  0.0000  0.0000  0.0000  0.0000  0.0000  0.0000      0.0000  0.0000  0.0000  0.0000  0.0000  0.0000  0.0000  0.0000  0.0000  0.0000  0.0000  0.0000  0.0000  0.0000
  o =  0.1888  v =  0.0000  0.0000  0.0000  0.0000  0.0000  0.0000  0.0000 -0.8943  0.0000  0.0000 -0.4474  0.0000  0.0000 -0.0000      0.0000  0.0000  0.0000  0.0000  0.0000  0.0000  0.0000  0.0000  0.0000  0.0000  0.0000  0.0000  0.0000  0.0000
     EDDAV:  cpu time    0.1448: real time    0.1452
       DOS:  cpu time    0.0001: real time    0.0001
    CHARGE:  cpu time    0.0400: real time    0.0401
    MIXING:  cpu time    0.0010: real time    0.0010
    --------------------------------------------
      LOOP:  cpu time    0.5910: real time    0.5921

 eigenvalue-minimisations  :   480
 total energy-change (2. order) : 0.1910764E+01  (-0.6505415E+00)
 number of electron      24.0000000 magnetization 
 augmentation part       -0.4141458 magnetization 

 Broyden mixing:
  rms(total) = 0.25089E+00    rms(broyden)= 0.25076E+00
  rms(prec ) = 0.26110E+00
  weight for this iteration     100.00

 eigenvalues of (default mixing * dielectric matrix)
  average eigenvalue GAMMA=   1.2904
  2.2286  1.0973  0.5451

 Free energy of the ion-electron system (eV)
  ---------------------------------------------------
  alpha Z        PSCENC =        13.68504980
  Ewald energy   TEWEN  =      9451.41527995
  -Hartree energ DENC   =    -11112.23184518
  -exchange      EXHF   =         0.00000000
  -V(xc)+E(xc)   XCENC  =        63.42010697
  PAW double counting   =      1970.58003577    -1948.95321679
  entropy T*S    EENTRO =         0.00000000
  eigenvalues    EBANDS =      -388.71271103
  atomic energy  EATOM  =      1927.56740593
  Solvation  Ediel_sol  =         0.00000000
  ---------------------------------------------------
  free energy    TOTEN  =       -23.22989459 eV

  energy without entropy =      -23.22989459  energy(sigma->0) =      -23.22989459


--------------------------------------------------------------------------------------------------------




--------------------------------------- Iteration      1(   9)  ---------------------------------------


    POTLOK:  cpu time    0.0161: real time    0.0162
    SETDIJ:  cpu time    0.3758: real time    0.3764
atom =   1  type =  1  l = 3
 
 onsite density matrix
 
spin component  1
 
  0.1373 -0.0000 -0.0000  0.0642 -0.0000 -0.0000  0.0000
 -0.0000  0.0763 -0.0000  0.0000  0.0050 -0.0000 -0.0000
 -0.0000 -0.0000  0.0350 -0.0000  0.0000  0.0050  0.0000
  0.0642  0.0000 -0.0000  0.0476 -0.0000 -0.0000  0.0000
 -0.0000  0.0050  0.0000 -0.0000  0.0350  0.0000 -0.0000
 -0.0000 -0.0000  0.0050 -0.0000  0.0000  0.0763 -0.0000
  0.0000 -0.0000  0.0000  0.0000 -0.0000 -0.0000  0.0471
 
spin component  2
 
  0.1373 -0.0000 -0.0000  0.0642 -0.0000 -0.0000  0.0000
 -0.0000  0.0763 -0.0000  0.0000  0.0050 -0.0000 -0.0000
 -0.0000 -0.0000  0.0350 -0.0000  0.0000  0.0050  0.0000
  0.0642  0.0000 -0.0000  0.0476 -0.0000 -0.0000  0.0000
 -0.0000  0.0050  0.0000 -0.0000  0.0350  0.0000 -0.0000
 -0.0000 -0.0000  0.0050 -0.0000  0.0000  0.0763 -0.0000
  0.0000 -0.0000  0.0000  0.0000 -0.0000 -0.0000  0.0471
 
 occupancies and eigenvectors
 
  o =  0.0141  v =  0.4624  0.0000  0.0000 -0.8867 -0.0000 -0.0000 -0.0000  0.0000  0.0000  0.0000  0.0000  0.0000  0.0000  0.0000      0.0000  0.0000  0.0000  0.0000  0.0000  0.0000  0.0000  0.0000  0.0000  0.0000  0.0000  0.0000  0.0000  0.0000
  o =  0.0141  v =  0.0000  0.0000  0.0000  0.0000  0.0000  0.0000  0.0000  0.4624  0.0000  0.0000 -0.8867 -0.0000 -0.0000 -0.0000      0.0000  0.0000  0.0000  0.0000  0.0000  0.0000  0.0000  0.0000  0.0000  0.0000  0.0000  0.0000  0.0000  0.0000
  o =  0.0344  v =  0.0000  0.0001  0.9931  0.0000 -0.0005 -0.1172 -0.0000  0.0000  0.0000  0.0000  0.0000  0.0000  0.0000  0.0000      0.0000  0.0000  0.0000  0.0000  0.0000  0.0000  0.0000  0.0000  0.0000  0.0000  0.0000  0.0000  0.0000  0.0000
  o =  0.0344  v =  0.0000  0.0000  0.0000  0.0000  0.0000  0.0000  0.0000  0.0000  0.0001  0.9931  0.0000 -0.0005 -0.1172 -0.0000      0.0000  0.0000  0.0000  0.0000  0.0000  0.0000  0.0000  0.0000  0.0000  0.0000  0.0000  0.0000  0.0000  0.0000
  o =  0.0344  v = -0.0000  0.1172 -0.0005 -0.0000 -0.9931  0.0001 -0.0000  0.0000  0.0000  0.0000  0.0000  0.0000  0.0000  0.0000      0.0000  0.0000  0.0000  0.0000  0.0000  0.0000  0.0000  0.0000  0.0000  0.0000  0.0000  0.0000  0.0000  0.0000
  o =  0.0344  v =  0.0000  0.0000  0.0000  0.0000  0.0000  0.0000  0.0000 -0.0000  0.1172 -0.0005 -0.0000 -0.9931  0.0001 -0.0000      0.0000  0.0000  0.0000  0.0000  0.0000  0.0000  0.0000  0.0000  0.0000  0.0000  0.0000  0.0000  0.0000  0.0000
  o =  0.0471  v =  0.0000  0.0000  0.0000  0.0000  0.0000  0.0000  0.0000 -0.0000  0.0000  0.0000 -0.0000 -0.0000  0.0000  1.0000      0.0000  0.0000  0.0000  0.0000  0.0000  0.0000  0.0000  0.0000  0.0000  0.0000  0.0000  0.0000  0.0000  0.0000
  o =  0.0471  v = -0.0000  0.0000  0.0000 -0.0000 -0.0000  0.0000  1.0000  0.0000  0.0000  0.0000  0.0000  0.0000  0.0000  0.0000      0.0000  0.0000  0.0000  0.0000  0.0000  0.0000  0.0000  0.0000  0.0000  0.0000  0.0000  0.0000  0.0000  0.0000
  o =  0.0769  v =  0.0000  0.0000  0.0000  0.0000  0.0000  0.0000  0.0000  0.0000  0.0015  0.1172 -0.0000  0.0002  0.9931 -0.0000      0.0000  0.0000  0.0000  0.0000  0.0000  0.0000  0.0000  0.0000  0.0000  0.0000  0.0000  0.0000  0.0000  0.0000
  o =  0.0769  v =  0.0000  0.0015  0.1172 -0.0000  0.0002  0.9931 -0.0000  0.0000  0.0000  0.0000  0.0000  0.0000  0.0000  0.0000      0.0000  0.0000  0.0000  0.0000  0.0000  0.0000  0.0000  0.0000  0.0000  0.0000  0.0000  0.0000  0.0000  0.0000
  o =  0.0769  v = -0.0000  0.9931 -0.0002  0.0000  0.1172 -0.0015 -0.0000  0.0000  0.0000  0.0000  0.0000  0.0000  0.0000  0.0000      0.0000  0.0000  0.0000  0.0000  0.0000  0.0000  0.0000  0.0000  0.0000  0.0000  0.0000  0.0000  0.0000  0.0000
  o =  0.0769  v =  0.0000  0.0000  0.0000  0.0000  0.0000  0.0000  0.0000 -0.0000  0.9931 -0.0002  0.0000  0.1172 -0.0015 -0.0000      0.0000  0.0000  0.0000  0.0000  0.0000  0.0000  0.0000  0.0000  0.0000  0.0000  0.0000  0.0000  0.0000  0.0000
  o =  0.1708  v =  0.0000  0.0000  0.0000  0.0000  0.0000  0.0000  0.0000 -0.8867  0.0000  0.0000 -0.4624  0.0000  0.0000 -0.0000      0.0000  0.0000  0.0000  0.0000  0.0000  0.0000  0.0000  0.0000  0.0000  0.0000  0.0000  0.0000  0.0000  0.0000
  o =  0.1708  v = -0.8867  0.0000  0.0000 -0.4624  0.0000  0.0000 -0.0000  0.0000  0.0000  0.0000  0.0000  0.0000  0.0000  0.0000      0.0000  0.0000  0.0000  0.0000  0.0000  0.0000  0.0000  0.0000  0.0000  0.0000  0.0000  0.0000  0.0000  0.0000
     EDDAV:  cpu time    0.1841: real time    0.1845
       DOS:  cpu time    0.0002: real time    0.0002
    CHARGE:  cpu time    0.0400: real time    0.0401
    MIXING:  cpu time    0.0016: real time    0.0016
    --------------------------------------------
      LOOP:  cpu time    0.6179: real time    0.6190

 eigenvalue-minimisations  :   592
 total energy-change (2. order) : 0.4020263E-01  (-0.1270256E+00)
 number of electron      24.0000000 magnetization 
 augmentation part       -0.4751697 magnetization 

 Broyden mixing:
  rms(total) = 0.77742E-01    rms(broyden)= 0.77399E-01
  rms(prec ) = 0.82149E-01
  weight for this iteration     100.00

 eigenvalues of (default mixing * dielectric matrix)
  average eigenvalue GAMMA=   1.1740
  2.1923  1.2703  0.5459  0.6876

 Free energy of the ion-electron system (eV)
  ---------------------------------------------------
  alpha Z        PSCENC =        13.68504980
  Ewald energy   TEWEN  =      9451.41527995
  -Hartree energ DENC   =    -11110.10000142
  -exchange      EXHF   =         0.00000000
  -V(xc)+E(xc)   XCENC  =        63.43541233
  PAW double counting   =      1916.38305279    -1894.49054898
  entropy T*S    EENTRO =         0.00000000
  eigenvalues    EBANDS =      -391.08534235
  atomic energy  EATOM  =      1927.56740593
  Solvation  Ediel_sol  =         0.00000000
  ---------------------------------------------------
  free energy    TOTEN  =       -23.18969196 eV

  energy without entropy =      -23.18969196  energy(sigma->0) =      -23.18969196


--------------------------------------------------------------------------------------------------------




--------------------------------------- Iteration      1(  10)  ---------------------------------------


    POTLOK:  cpu time    0.0167: real time    0.0167
    SETDIJ:  cpu time    0.3878: real time    0.3885
atom =   1  type =  1  l = 3
 
 onsite density matrix
 
spin component  1
 
  0.1349 -0.0000 -0.0000  0.0662 -0.0000 -0.0000  0.0000
 -0.0000  0.0726 -0.0000  0.0000  0.0051 -0.0000 -0.0000
 -0.0000 -0.0000  0.0322 -0.0000 -0.0000  0.0051  0.0000
  0.0662  0.0000 -0.0000  0.0483 -0.0000 -0.0000  0.0000
 -0.0000  0.0051 -0.0000 -0.0000  0.0322  0.0000 -0.0000
 -0.0000 -0.0000  0.0051 -0.0000  0.0000  0.0726 -0.0000
  0.0000 -0.0000  0.0000  0.0000 -0.0000 -0.0000  0.0445
 
spin component  2
 
  0.1349 -0.0000 -0.0000  0.0662 -0.0000 -0.0000  0.0000
 -0.0000  0.0726 -0.0000  0.0000  0.0051 -0.0000 -0.0000
 -0.0000 -0.0000  0.0322 -0.0000 -0.0000  0.0051  0.0000
  0.0662  0.0000 -0.0000  0.0483 -0.0000 -0.0000  0.0000
 -0.0000  0.0051 -0.0000 -0.0000  0.0322  0.0000 -0.0000
 -0.0000 -0.0000  0.0051 -0.0000  0.0000  0.0726 -0.0000
  0.0000 -0.0000  0.0000  0.0000 -0.0000 -0.0000  0.0445
 
 occupancies and eigenvectors
 
  o =  0.0125  v =  0.4758  0.0000  0.0000 -0.8796 -0.0000 -0.0000 -0.0000  0.0000  0.0000  0.0000  0.0000  0.0000  0.0000  0.0000      0.0000  0.0000  0.0000  0.0000  0.0000  0.0000  0.0000  0.0000  0.0000  0.0000  0.0000  0.0000  0.0000  0.0000
  o =  0.0125  v =  0.0000  0.0000  0.0000  0.0000  0.0000  0.0000  0.0000  0.4758  0.0000  0.0000 -0.8796 -0.0000 -0.0000 -0.0000      0.0000  0.0000  0.0000  0.0000  0.0000  0.0000  0.0000  0.0000  0.0000  0.0000  0.0000  0.0000  0.0000  0.0000
  o =  0.0316  v = -0.0000  0.0000 -0.9924 -0.0000 -0.0000  0.1229  0.0000  0.0000  0.0000  0.0000  0.0000  0.0000  0.0000  0.0000      0.0000  0.0000  0.0000  0.0000  0.0000  0.0000  0.0000  0.0000  0.0000  0.0000  0.0000  0.0000  0.0000  0.0000
  o =  0.0316  v =  0.0000  0.0000  0.0000  0.0000  0.0000  0.0000  0.0000 -0.0000  0.0000 -0.9924 -0.0000 -0.0000  0.1229  0.0000      0.0000  0.0000  0.0000  0.0000  0.0000  0.0000  0.0000  0.0000  0.0000  0.0000  0.0000  0.0000  0.0000  0.0000
  o =  0.0316  v = -0.0000  0.1229  0.0000  0.0000 -0.9924 -0.0000 -0.0000  0.0000  0.0000  0.0000  0.0000  0.0000  0.0000  0.0000      0.0000  0.0000  0.0000  0.0000  0.0000  0.0000  0.0000  0.0000  0.0000  0.0000  0.0000  0.0000  0.0000  0.0000
  o =  0.0316  v =  0.0000  0.0000  0.0000  0.0000  0.0000  0.0000  0.0000 -0.0000  0.1229  0.0000  0.0000 -0.9924 -0.0000 -0.0000      0.0000  0.0000  0.0000  0.0000  0.0000  0.0000  0.0000  0.0000  0.0000  0.0000  0.0000  0.0000  0.0000  0.0000
  o =  0.0445  v =  0.0000  0.0000  0.0000  0.0000  0.0000  0.0000  0.0000 -0.0000  0.0000  0.0000 -0.0000 -0.0000  0.0000  1.0000      0.0000  0.0000  0.0000  0.0000  0.0000  0.0000  0.0000  0.0000  0.0000  0.0000  0.0000  0.0000  0.0000  0.0000
  o =  0.0445  v = -0.0000  0.0000  0.0000 -0.0000 -0.0000  0.0000  1.0000  0.0000  0.0000  0.0000  0.0000  0.0000  0.0000  0.0000      0.0000  0.0000  0.0000  0.0000  0.0000  0.0000  0.0000  0.0000  0.0000  0.0000  0.0000  0.0000  0.0000  0.0000
  o =  0.0733  v =  0.0000  0.0000  0.0000  0.0000  0.0000  0.0000  0.0000  0.0000  0.0018  0.1229 -0.0000  0.0002  0.9924 -0.0000      0.0000  0.0000  0.0000  0.0000  0.0000  0.0000  0.0000  0.0000  0.0000  0.0000  0.0000  0.0000  0.0000  0.0000
  o =  0.0733  v =  0.0000  0.0018  0.1229 -0.0000  0.0002  0.9924 -0.0000  0.0000  0.0000  0.0000  0.0000  0.0000  0.0000  0.0000      0.0000  0.0000  0.0000  0.0000  0.0000  0.0000  0.0000  0.0000  0.0000  0.0000  0.0000  0.0000  0.0000  0.0000
  o =  0.0733  v =  0.0000  0.0000  0.0000  0.0000  0.0000  0.0000  0.0000 -0.0000  0.9924 -0.0002  0.0000  0.1229 -0.0018 -0.0000      0.0000  0.0000  0.0000  0.0000  0.0000  0.0000  0.0000  0.0000  0.0000  0.0000  0.0000  0.0000  0.0000  0.0000
  o =  0.0733  v = -0.0000  0.9924 -0.0002  0.0000  0.1229 -0.0018 -0.0000  0.0000  0.0000  0.0000  0.0000  0.0000  0.0000  0.0000      0.0000  0.0000  0.0000  0.0000  0.0000  0.0000  0.0000  0.0000  0.0000  0.0000  0.0000  0.0000  0.0000  0.0000
  o =  0.1708  v = -0.8796  0.0000  0.0000 -0.4758  0.0000  0.0000 -0.0000  0.0000  0.0000  0.0000  0.0000  0.0000  0.0000  0.0000      0.0000  0.0000  0.0000  0.0000  0.0000  0.0000  0.0000  0.0000  0.0000  0.0000  0.0000  0.0000  0.0000  0.0000
  o =  0.1708  v =  0.0000  0.0000  0.0000  0.0000  0.0000  0.0000  0.0000 -0.8796  0.0000  0.0000 -0.4758  0.0000  0.0000 -0.0000      0.0000  0.0000  0.0000  0.0000  0.0000  0.0000  0.0000  0.0000  0.0000  0.0000  0.0000  0.0000  0.0000  0.0000
     EDDAV:  cpu time    0.1516: real time    0.1519
       DOS:  cpu time    0.0002: real time    0.0002
    CHARGE:  cpu time    0.0397: real time    0.0397
    MIXING:  cpu time    0.0017: real time    0.0017
    --------------------------------------------
      LOOP:  cpu time    0.5977: real time    0.5988

 eigenvalue-minimisations  :   472
 total energy-change (2. order) : 0.5995086E-02  (-0.1223840E-01)
 number of electron      24.0000000 magnetization 
 augmentation part       -0.4561219 magnetization 

 Broyden mixing:
  rms(total) = 0.97007E-01    rms(broyden)= 0.96976E-01
  rms(prec ) = 0.10066E+00
  weight for this iteration     100.00

 eigenvalues of (default mixing * dielectric matrix)
  average eigenvalue GAMMA=   1.3137
  1.9691  1.5687  1.5687  0.5392  0.9228

 Free energy of the ion-electron system (eV)
  ---------------------------------------------------
  alpha Z        PSCENC =        13.68504980
  Ewald energy   TEWEN  =      9451.41527995
  -Hartree energ DENC   =    -11113.93465207
  -exchange      EXHF   =         0.00000000
  -V(xc)+E(xc)   XCENC  =        63.43160754
  PAW double counting   =      1914.46207800    -1892.04839435
  entropy T*S    EENTRO =         0.00000000
  eigenvalues    EBANDS =      -387.76207167
  atomic energy  EATOM  =      1927.56740593
  Solvation  Ediel_sol  =         0.00000000
  ---------------------------------------------------
  free energy    TOTEN  =       -23.18369687 eV

  energy without entropy =      -23.18369687  energy(sigma->0) =      -23.18369687


--------------------------------------------------------------------------------------------------------




--------------------------------------- Iteration      1(  11)  ---------------------------------------


    POTLOK:  cpu time    0.0160: real time    0.0160
    SETDIJ:  cpu time    0.4021: real time    0.4028
atom =   1  type =  1  l = 3
 
 onsite density matrix
 
spin component  1
 
  0.1362 -0.0000 -0.0000  0.0707 -0.0000 -0.0000 -0.0000
 -0.0000  0.0706  0.0000  0.0000  0.0054  0.0000 -0.0000
 -0.0000  0.0000  0.0299 -0.0000  0.0000  0.0054 -0.0000
  0.0707  0.0000 -0.0000  0.0508 -0.0000 -0.0000 -0.0000
 -0.0000  0.0054  0.0000 -0.0000  0.0299  0.0000 -0.0000
 -0.0000  0.0000  0.0054 -0.0000  0.0000  0.0706  0.0000
 -0.0000 -0.0000 -0.0000 -0.0000 -0.0000  0.0000  0.0427
 
spin component  2
 
  0.1362 -0.0000 -0.0000  0.0707 -0.0000 -0.0000 -0.0000
 -0.0000  0.0706  0.0000  0.0000  0.0054  0.0000 -0.0000
 -0.0000  0.0000  0.0299 -0.0000  0.0000  0.0054 -0.0000
  0.0707  0.0000 -0.0000  0.0508 -0.0000 -0.0000 -0.0000
 -0.0000  0.0054  0.0000 -0.0000  0.0299  0.0000 -0.0000
 -0.0000  0.0000  0.0054 -0.0000  0.0000  0.0706  0.0000
 -0.0000 -0.0000 -0.0000 -0.0000 -0.0000  0.0000  0.0427
 
 occupancies and eigenvectors
 
  o =  0.0109  v =  0.4914 -0.0000  0.0000 -0.8709  0.0000 -0.0000 -0.0000  0.0000  0.0000  0.0000  0.0000  0.0000  0.0000  0.0000      0.0000  0.0000  0.0000  0.0000  0.0000  0.0000  0.0000  0.0000  0.0000  0.0000  0.0000  0.0000  0.0000  0.0000
  o =  0.0109  v =  0.0000  0.0000  0.0000  0.0000  0.0000  0.0000  0.0000  0.4914 -0.0000  0.0000 -0.8709  0.0000 -0.0000 -0.0000      0.0000  0.0000  0.0000  0.0000  0.0000  0.0000  0.0000  0.0000  0.0000  0.0000  0.0000  0.0000  0.0000  0.0000
  o =  0.0292  v = -0.0000 -0.0000 -0.9916 -0.0000  0.0002  0.1293  0.0000  0.0000  0.0000  0.0000  0.0000  0.0000  0.0000  0.0000      0.0000  0.0000  0.0000  0.0000  0.0000  0.0000  0.0000  0.0000  0.0000  0.0000  0.0000  0.0000  0.0000  0.0000
  o =  0.0292  v =  0.0000  0.0000  0.0000  0.0000  0.0000  0.0000  0.0000 -0.0000 -0.0000 -0.9916 -0.0000  0.0002  0.1293  0.0000      0.0000  0.0000  0.0000  0.0000  0.0000  0.0000  0.0000  0.0000  0.0000  0.0000  0.0000  0.0000  0.0000  0.0000
  o =  0.0292  v =  0.0000  0.1293 -0.0002 -0.0000 -0.9916  0.0000 -0.0000  0.0000  0.0000  0.0000  0.0000  0.0000  0.0000  0.0000      0.0000  0.0000  0.0000  0.0000  0.0000  0.0000  0.0000  0.0000  0.0000  0.0000  0.0000  0.0000  0.0000  0.0000
  o =  0.0292  v =  0.0000  0.0000  0.0000  0.0000  0.0000  0.0000  0.0000  0.0000  0.1293 -0.0002 -0.0000 -0.9916  0.0000 -0.0000      0.0000  0.0000  0.0000  0.0000  0.0000  0.0000  0.0000  0.0000  0.0000  0.0000  0.0000  0.0000  0.0000  0.0000
  o =  0.0427  v =  0.0000  0.0000  0.0000  0.0000  0.0000  0.0000  0.0000 -0.0000 -0.0000  0.0000  0.0000  0.0000  0.0000 -1.0000      0.0000  0.0000  0.0000  0.0000  0.0000  0.0000  0.0000  0.0000  0.0000  0.0000  0.0000  0.0000  0.0000  0.0000
  o =  0.0427  v = -0.0000 -0.0000  0.0000  0.0000  0.0000  0.0000 -1.0000  0.0000  0.0000  0.0000  0.0000  0.0000  0.0000  0.0000      0.0000  0.0000  0.0000  0.0000  0.0000  0.0000  0.0000  0.0000  0.0000  0.0000  0.0000  0.0000  0.0000  0.0000
  o =  0.0713  v =  0.0000  0.0000  0.0000  0.0000  0.0000  0.0000  0.0000  0.0000 -0.0041  0.1293 -0.0000 -0.0005  0.9916  0.0000      0.0000  0.0000  0.0000  0.0000  0.0000  0.0000  0.0000  0.0000  0.0000  0.0000  0.0000  0.0000  0.0000  0.0000
  o =  0.0713  v =  0.0000 -0.0041  0.1293 -0.0000 -0.0005  0.9916  0.0000  0.0000  0.0000  0.0000  0.0000  0.0000  0.0000  0.0000      0.0000  0.0000  0.0000  0.0000  0.0000  0.0000  0.0000  0.0000  0.0000  0.0000  0.0000  0.0000  0.0000  0.0000
  o =  0.0713  v =  0.0000  0.0000  0.0000  0.0000  0.0000  0.0000  0.0000 -0.0000 -0.9916 -0.0005  0.0000 -0.1293 -0.0041  0.0000      0.0000  0.0000  0.0000  0.0000  0.0000  0.0000  0.0000  0.0000  0.0000  0.0000  0.0000  0.0000  0.0000  0.0000
  o =  0.0713  v = -0.0000 -0.9916 -0.0005  0.0000 -0.1293 -0.0041  0.0000  0.0000  0.0000  0.0000  0.0000  0.0000  0.0000  0.0000      0.0000  0.0000  0.0000  0.0000  0.0000  0.0000  0.0000  0.0000  0.0000  0.0000  0.0000  0.0000  0.0000  0.0000
  o =  0.1761  v = -0.8709 -0.0000  0.0000 -0.4914  0.0000  0.0000  0.0000  0.0000  0.0000  0.0000  0.0000  0.0000  0.0000  0.0000      0.0000  0.0000  0.0000  0.0000  0.0000  0.0000  0.0000  0.0000  0.0000  0.0000  0.0000  0.0000  0.0000  0.0000
  o =  0.1761  v =  0.0000  0.0000  0.0000  0.0000  0.0000  0.0000  0.0000 -0.8709 -0.0000  0.0000 -0.4914  0.0000  0.0000  0.0000      0.0000  0.0000  0.0000  0.0000  0.0000  0.0000  0.0000  0.0000  0.0000  0.0000  0.0000  0.0000  0.0000  0.0000
     EDDAV:  cpu time    0.1842: real time    0.1846
       DOS:  cpu time    0.0002: real time    0.0002
    CHARGE:  cpu time    0.0402: real time    0.0403
    MIXING:  cpu time    0.0015: real time    0.0015
    --------------------------------------------
      LOOP:  cpu time    0.6442: real time    0.6454

 eigenvalue-minimisations  :   592
 total energy-change (2. order) : 0.1084128E-01  (-0.6145006E-02)
 number of electron      24.0000000 magnetization 
 augmentation part       -0.4914805 magnetization 

 Broyden mixing:
  rms(total) = 0.40433E-01    rms(broyden)= 0.40414E-01
  rms(prec ) = 0.44545E-01
  weight for this iteration     100.00

 eigenvalues of (default mixing * dielectric matrix)
  average eigenvalue GAMMA=   1.4467
  2.6036  1.8999  1.8999  0.5369  0.9494  0.7908

 Free energy of the ion-electron system (eV)
  ---------------------------------------------------
  alpha Z        PSCENC =        13.68504980
  Ewald energy   TEWEN  =      9451.41527995
  -Hartree energ DENC   =    -11120.36255062
  -exchange      EXHF   =         0.00000000
  -V(xc)+E(xc)   XCENC  =        63.38874569
  PAW double counting   =      1916.16776772    -1893.25197350
  entropy T*S    EENTRO =        -0.00000000
  eigenvalues    EBANDS =      -381.78258055
  atomic energy  EATOM  =      1927.56740593
  Solvation  Ediel_sol  =         0.00000000
  ---------------------------------------------------
  free energy    TOTEN  =       -23.17285559 eV

  energy without entropy =      -23.17285559  energy(sigma->0) =      -23.17285559


--------------------------------------------------------------------------------------------------------




--------------------------------------- Iteration      1(  12)  ---------------------------------------


    POTLOK:  cpu time    0.0164: real time    0.0165
    SETDIJ:  cpu time    0.3990: real time    0.3998
atom =   1  type =  1  l = 3
 
 onsite density matrix
 
spin component  1
 
  0.1364  0.0000 -0.0000  0.0737 -0.0000 -0.0000 -0.0000
  0.0000  0.0681  0.0000 -0.0000  0.0055  0.0000 -0.0000
 -0.0000  0.0000  0.0276 -0.0000  0.0000  0.0055 -0.0000
  0.0737 -0.0000 -0.0000  0.0517 -0.0000 -0.0000 -0.0000
 -0.0000  0.0055  0.0000 -0.0000  0.0276  0.0000 -0.0000
 -0.0000  0.0000  0.0055 -0.0000  0.0000  0.0681  0.0000
 -0.0000 -0.0000 -0.0000 -0.0000 -0.0000  0.0000  0.0406
 
spin component  2
 
  0.1364  0.0000 -0.0000  0.0737 -0.0000 -0.0000 -0.0000
  0.0000  0.0681  0.0000 -0.0000  0.0055  0.0000 -0.0000
 -0.0000  0.0000  0.0276 -0.0000  0.0000  0.0055 -0.0000
  0.0737 -0.0000 -0.0000  0.0517 -0.0000 -0.0000 -0.0000
 -0.0000  0.0055  0.0000 -0.0000  0.0276  0.0000 -0.0000
 -0.0000  0.0000  0.0055 -0.0000  0.0000  0.0681  0.0000
 -0.0000 -0.0000 -0.0000 -0.0000 -0.0000  0.0000  0.0406
 
 occupancies and eigenvectors
 
  o =  0.0090  v = -0.5009  0.0000 -0.0000  0.8655 -0.0000  0.0000 -0.0000  0.0000  0.0000  0.0000  0.0000  0.0000  0.0000  0.0000      0.0000  0.0000  0.0000  0.0000  0.0000  0.0000  0.0000  0.0000  0.0000  0.0000  0.0000  0.0000  0.0000  0.0000
  o =  0.0090  v =  0.0000  0.0000  0.0000  0.0000  0.0000  0.0000  0.0000 -0.5009  0.0000 -0.0000  0.8655 -0.0000  0.0000 -0.0000      0.0000  0.0000  0.0000  0.0000  0.0000  0.0000  0.0000  0.0000  0.0000  0.0000  0.0000  0.0000  0.0000  0.0000
  o =  0.0269  v = -0.0000 -0.0000 -0.9912 -0.0000  0.0002  0.1325 -0.0000  0.0000  0.0000  0.0000  0.0000  0.0000  0.0000  0.0000      0.0000  0.0000  0.0000  0.0000  0.0000  0.0000  0.0000  0.0000  0.0000  0.0000  0.0000  0.0000  0.0000  0.0000
  o =  0.0269  v =  0.0000  0.0000  0.0000  0.0000  0.0000  0.0000  0.0000 -0.0000 -0.0000 -0.9912 -0.0000  0.0002  0.1325 -0.0000      0.0000  0.0000  0.0000  0.0000  0.0000  0.0000  0.0000  0.0000  0.0000  0.0000  0.0000  0.0000  0.0000  0.0000
  o =  0.0269  v = -0.0000 -0.1325  0.0002  0.0000  0.9912 -0.0000  0.0000  0.0000  0.0000  0.0000  0.0000  0.0000  0.0000  0.0000      0.0000  0.0000  0.0000  0.0000  0.0000  0.0000  0.0000  0.0000  0.0000  0.0000  0.0000  0.0000  0.0000  0.0000
[...]
  eigenvalues    EBANDS =      -356.84478171
  atomic energy  EATOM  =      1927.56740593
  Solvation  Ediel_sol  =         0.00000000
  ---------------------------------------------------
  free energy    TOTEN  =       -23.16168558 eV

  energy without entropy =      -23.16168558  energy(sigma->0) =      -23.16168558


--------------------------------------------------------------------------------------------------------




 average (electrostatic) potential at core
  the test charge radii are     1.1513  0.7215
  (the norm of the test charge is              1.0000)
       1 -88.5184       2 -78.0562       3 -78.0562
 
 
 
 E-fermi :  -4.9272     XC(G=0):  -1.5645     alpha+bet : -1.6805


 k-point     1 :       0.0000    0.0000    0.0000
  band No.  band energies     occupation 
      1     -38.1021      2.00000
      2     -22.2852      2.00000
      3     -20.9324      2.00000
      4     -20.1687      2.00000
      5     -20.1687      2.00000
      6     -18.2186      2.00000
      7      -8.7629      2.00000
      8      -8.7629      2.00000
      9      -7.0721      2.00000
     10      -5.9974      2.00000
     11      -5.0206      2.00000
     12      -5.0206      2.00000
     13      -1.8550      0.00000
     14      -1.6122      0.00000
     15      -1.6122      0.00000
     16      -1.2650      0.00000

 k-point     2 :       0.1250   -0.0000    0.0000
  band No.  band energies     occupation 
      1     -38.0677      2.00000
      2     -22.2189      2.00000
      3     -21.9595      2.00000
      4     -20.2390      2.00000
      5     -19.1247      2.00000
      6     -18.4249      2.00000
      7      -8.5040      2.00000
      8      -8.3493      2.00000
      9      -7.0598      2.00000
     10      -6.0241      2.00000
     11      -5.1766      2.00000
     12      -5.0704      2.00000
     13      -1.8219      0.00000
     14      -1.6175      0.00000
     15      -1.5965      0.00000
     16      -1.2929      0.00000

 k-point     3 :       0.2500   -0.0000    0.0000
  band No.  band energies     occupation 
      1     -37.9827      2.00000
      2     -23.1472      2.00000
      3     -21.8821      2.00000
      4     -20.4014      2.00000
      5     -19.2730      2.00000
      6     -17.6542      2.00000
      7      -7.8620      2.00000
      8      -7.5891      2.00000
      9      -7.0684      2.00000
     10      -6.0061      2.00000
     11      -5.2509      2.00000
     12      -5.1821      2.00000
     13      -1.7224      0.00000
     14      -1.6307      0.00000
     15      -1.5586      0.00000
     16      -1.4694      0.00000

 k-point     4 :       0.3750   -0.0000    0.0000
  band No.  band energies     occupation 
      1     -37.8948      2.00000
      2     -23.9141      2.00000
      3     -21.4256      2.00000
      4     -20.5544      2.00000
      5     -20.0380      2.00000
      6     -16.7282      2.00000
      7      -7.8978      2.00000
      8      -7.1962      2.00000
      9      -6.2967      2.00000
     10      -5.6680      2.00000
     11      -5.2698      2.00000
     12      -5.1955      2.00000
     13      -1.7497      0.00000
     14      -1.6505      0.00000
     15      -1.6304      0.00000
     16      -1.5919      0.00000

 k-point     5 :       0.5000   -0.0000    0.0000
  band No.  band energies     occupation 
      1     -37.8576      2.00000
      2     -24.1857      2.00000
      3     -20.9373      2.00000
      4     -20.6446      2.00000
      5     -20.6153      2.00000
      6     -16.3802      2.00000
      7      -8.1324      2.00000
      8      -6.9181      2.00000
      9      -5.7876      2.00000
     10      -5.3855      2.00000
     11      -5.3508      2.00000
     12      -5.2903      2.00000
     13      -1.8839      0.00000
     14      -1.6964      0.00000
     15      -1.6462      0.00000
     16      -1.5405      0.00000

 k-point     6 :       0.1250    0.1250    0.0000
  band No.  band energies     occupation 
      1     -38.0078      2.00000
      2     -22.7970      2.00000
      3     -22.0903      2.00000
      4     -20.4353      2.00000
      5     -18.7189      2.00000
      6     -18.2170      2.00000
      7      -8.0167      2.00000
      8      -7.7254      2.00000
      9      -7.1001      2.00000
     10      -6.0873      2.00000
     11      -5.3797      2.00000
     12      -5.0281      2.00000
     13      -1.7549      0.00000
     14      -1.6312      0.00000
     15      -1.5599      0.00000
     16      -1.4417      0.00000

 k-point     7 :       0.2500    0.1250    0.0000
  band No.  band energies     occupation 
      1     -37.9211      2.00000
      2     -23.5678      2.00000
      3     -21.9999      2.00000
      4     -20.6442      2.00000
      5     -19.0932      2.00000
      6     -17.3003      2.00000
      7      -7.4912      2.00000
      8      -7.2808      2.00000
      9      -6.8374      2.00000
     10      -5.9618      2.00000
     11      -5.4334      2.00000
     12      -4.9761      2.00000
     13      -1.6800      0.00000
     14      -1.6398      0.00000
     15      -1.6259      0.00000
     16      -1.5318      0.00000

 k-point     8 :       0.3750    0.1250    0.0000
  band No.  band energies     occupation 
      1     -37.8578      2.00000
      2     -24.0125      2.00000
      3     -21.9850      2.00000
      4     -20.6435      2.00000
      5     -19.4423      2.00000
      6     -16.7240      2.00000
      7      -7.8565      2.00000
      8      -6.7516      2.00000
      9      -6.1404      2.00000
     10      -5.6127      2.00000
     11      -5.4951      2.00000
     12      -5.0528      2.00000
     13      -1.8359      0.00000
     14      -1.7000      0.00000
     15      -1.6180      0.00000
     16      -1.5441      0.00000

 k-point     9 :       0.2500    0.2500    0.0000
  band No.  band energies     occupation 
      1     -37.8581      2.00000
      2     -23.7460      2.00000
      3     -22.6064      2.00000
      4     -20.6445      2.00000
      5     -18.5910      2.00000
      6     -17.2624      2.00000
      7      -7.3272      2.00000
      8      -6.8033      2.00000
      9      -6.5284      2.00000
     10      -5.7192      2.00000
     11      -5.6014      2.00000
     12      -4.9742      2.00000
     13      -1.7629      0.00000
     14      -1.7552      0.00000
     15      -1.5482      0.00000
     16      -1.5031      0.00000

 k-point    10 :       0.3750    0.2500    0.0000
  band No.  band energies     occupation 
      1     -37.8317      2.00000
      2     -23.7359      2.00000
      3     -22.9529      2.00000
      4     -20.5919      2.00000
      5     -18.3739      2.00000
      6     -17.2948      2.00000
      7      -7.3540      2.00000
      8      -6.3906      2.00000
      9      -6.3829      2.00000
     10      -5.8044      2.00000
     11      -5.3555      2.00000
     12      -5.2497      2.00000
     13      -1.8277      0.00000
     14      -1.7790      0.00000
     15      -1.5224      0.00000
     16      -1.5200      0.00000


--------------------------------------------------------------------------------------------------------


 soft charge-density along one line, spin component           1
         0         1         2         3         4         5         6         7         8         9
 total charge-density along one line
 
 pseudopotential strength for first ion, spin component:           1
 25.035 -19.259   0.000  -0.000   0.000  -0.000   0.000  -0.000
-19.259  10.219  -0.000   0.000  -0.000   0.000  -0.000   0.000
  0.000  -0.000  14.349   0.000   0.000  -6.486  -0.000  -0.000
 -0.000   0.000   0.000  14.302  -0.000  -0.000  -6.415   0.000
  0.000  -0.000   0.000  -0.000  14.349  -0.000   0.000  -6.486
 -0.000   0.000  -6.486  -0.000  -0.000  13.908  -0.000  -0.000
  0.000  -0.000  -0.000  -6.415   0.000  -0.000  13.836   0.000
 -0.000   0.000  -0.000   0.000  -6.486  -0.000   0.000  13.908
  0.000  -0.000   0.000  -0.000   0.000   0.000  -0.000   0.000
  0.000  -0.000   0.000   0.000  -0.000   0.000   0.000  -0.000
 -0.019   0.005  -0.000  -0.000  -0.000  -0.000   0.000  -0.000
 -0.000   0.000  -0.000   0.000  -0.000  -0.000   0.000  -0.000
 -0.000   0.000  -0.000  -0.000   0.000  -0.000  -0.000   0.000
 -0.000   0.000  -0.000   0.000  -0.000  -0.000   0.000  -0.000
 -0.000   0.000  -0.000  -0.000   0.000  -0.000  -0.000   0.000
  0.044  -0.011   0.000   0.000   0.000   0.000  -0.000   0.000
  0.000  -0.000   0.000  -0.000   0.000   0.000  -0.000   0.000
  0.000  -0.000   0.000   0.000  -0.000   0.000   0.000  -0.000
  0.000  -0.000   0.000  -0.012  -0.000  -0.000   0.010   0.000
  0.000  -0.000   0.000  -0.000  -0.015  -0.000   0.000   0.012
  0.000  -0.000  -0.019  -0.000   0.000   0.008   0.000  -0.000
 -0.000   0.000   0.000  -0.029  -0.000  -0.000   0.014   0.000
  0.000  -0.000   0.000   0.000  -0.019  -0.000  -0.000   0.008
  0.000  -0.000  -0.015   0.000   0.000   0.012  -0.000  -0.000
  0.000  -0.000   0.000   0.000   0.000  -0.000  -0.000  -0.000
  0.000  -0.000   0.000  -0.012  -0.000  -0.000   0.010   0.000
  0.000  -0.000   0.000  -0.000  -0.015  -0.000   0.000   0.012
  0.000  -0.000  -0.019  -0.000   0.000   0.008   0.000  -0.000
 -0.000   0.000   0.000  -0.029  -0.000  -0.000   0.014   0.000
  0.000  -0.000   0.000   0.000  -0.019  -0.000  -0.000   0.008
  0.000  -0.000  -0.015   0.000   0.000   0.012  -0.000  -0.000
  0.000  -0.000   0.000   0.000   0.000  -0.000  -0.000  -0.000
 total augmentation occupancy for first ion, spin component:           1
  1.852  -0.384   0.000   0.000   0.000   0.000   0.000   0.000  -0.000   0.000   0.019   0.000  -0.000   0.000   0.000  -0.007
 -0.384   1.017   0.000   0.000   0.000   0.000   0.000   0.000   0.000   0.000  -0.366  -0.000   0.000   0.000   0.000  -0.069
  0.000   0.000   2.062   0.000   0.000  -0.080   0.000  -0.000   0.000   0.000   0.000   0.000   0.000   0.000   0.000   0.000
  0.000   0.000   0.000   2.023   0.000   0.000  -0.049   0.000   0.000   0.000   0.000   0.000   0.000   0.000   0.000   0.000
  0.000   0.000   0.000   0.000   2.062  -0.000  -0.000  -0.080   0.000   0.000   0.000   0.000   0.000   0.000   0.000   0.000
  0.000   0.000  -0.080   0.000   0.000   0.022   0.000   0.000   0.000   0.000   0.000   0.000   0.000   0.000   0.000   0.000
  0.000   0.000   0.000  -0.049  -0.000   0.000   0.008   0.000   0.000   0.000   0.000   0.000   0.000   0.000   0.000   0.000
  0.000   0.000  -0.000   0.000  -0.080   0.000   0.000   0.022   0.000   0.000   0.000   0.000   0.000   0.000   0.000   0.000
 -0.000   0.000   0.000   0.000   0.000   0.000   0.000   0.000   0.786   0.000  -0.000  -0.299   0.000   0.148   0.000   0.000
  0.000   0.000   0.000   0.000   0.000   0.000   0.000   0.000   0.000   0.554   0.000  -0.000  -0.299   0.000   0.094   0.000
  0.019  -0.366   0.000   0.000   0.000   0.000   0.000   0.000   0.000   0.000   0.377   0.000  -0.000  -0.000   0.000   0.065
 -0.000  -0.000   0.000   0.000   0.000   0.000   0.000   0.000  -0.299  -0.000   0.000   0.554   0.000  -0.061   0.000  -0.000
 -0.000   0.000   0.000   0.000   0.000   0.000   0.000   0.000  -0.000  -0.299  -0.000  -0.000   0.786  -0.000  -0.061  -0.000
 -0.000  -0.000   0.000   0.000   0.000   0.000   0.000   0.000   0.148   0.000  -0.000  -0.061   0.000   0.030   0.000   0.000
  0.000   0.000   0.000   0.000   0.000   0.000   0.000   0.000  -0.000   0.094   0.000   0.000  -0.061   0.000   0.017   0.000
 -0.007  -0.069   0.000   0.000   0.000   0.000   0.000   0.000   0.000   0.000   0.065   0.000  -0.000  -0.000   0.000   0.012
  0.000   0.000   0.000   0.000   0.000   0.000   0.000   0.000  -0.061   0.000   0.000   0.094  -0.000  -0.014  -0.000  -0.000
  0.000   0.000   0.000   0.000   0.000   0.000   0.000   0.000   0.000  -0.061  -0.000  -0.000   0.148   0.000  -0.014  -0.000
  0.000   0.000   0.000  -0.232   0.000  -0.000   0.158   0.000   0.000   0.000   0.000   0.000   0.000   0.000   0.000   0.000
  0.000   0.000  -0.000  -0.000  -0.299   0.000   0.000   0.202   0.000   0.000   0.000   0.000   0.000   0.000   0.000   0.000
  0.000   0.000  -0.274   0.000  -0.000   0.124  -0.000   0.000   0.000   0.000   0.000   0.000   0.000   0.000   0.000   0.000
  0.000   0.000   0.000  -0.369  -0.000  -0.000   0.152   0.000   0.000   0.000   0.000   0.000   0.000   0.000   0.000   0.000
  0.000   0.000   0.000   0.000  -0.274  -0.000  -0.000   0.124   0.000   0.000   0.000   0.000   0.000   0.000   0.000   0.000
  0.000   0.000  -0.299   0.000   0.000   0.202  -0.000  -0.000   0.000   0.000   0.000   0.000   0.000   0.000   0.000   0.000
  0.000   0.000   0.000   0.000   0.000   0.000  -0.000  -0.000   0.000   0.000   0.000   0.000   0.000   0.000   0.000   0.000
  0.000   0.000  -0.000   0.292  -0.000   0.000  -0.181   0.000   0.000   0.000   0.000   0.000   0.000   0.000   0.000   0.000
  0.000   0.000   0.000   0.000   0.385  -0.000   0.000  -0.235   0.000   0.000   0.000   0.000   0.000   0.000   0.000   0.000
  0.000   0.000   0.327  -0.000   0.000  -0.141   0.000  -0.000   0.000   0.000   0.000   0.000   0.000   0.000   0.000   0.000
  0.000   0.000  -0.000   0.439   0.000   0.000  -0.175  -0.000   0.000   0.000   0.000   0.000   0.000   0.000   0.000   0.000
  0.000   0.000   0.000   0.000   0.327   0.000   0.000  -0.141   0.000   0.000   0.000   0.000   0.000   0.000   0.000   0.000
  0.000   0.000   0.385  -0.000  -0.000  -0.235   0.000  -0.000   0.000   0.000   0.000   0.000   0.000   0.000   0.000   0.000
  0.000   0.000  -0.000   0.000  -0.000   0.000   0.000   0.000   0.000   0.000   0.000   0.000   0.000   0.000   0.000   0.000


------------------------ aborting loop because EDIFF is reached ----------------------------------------


 


 total charge     
 
# of ion       s       p       d       f       tot
--------------------------------------------------
    1        2.004   5.816   1.063   0.822   9.704
    2        1.608   3.473   0.000   0.000   5.081
    3        1.608   3.473   0.000   0.000   5.081
--------------------------------------------------
tot          5.219  12.762   1.063   0.822  19.866

 
    CHARGE:  cpu time    0.0377: real time    0.0378
    FORLOC:  cpu time    0.0015: real time    0.0016
    FORNL :  cpu time    0.1501: real time    0.1506
    STRESS:  cpu time    0.4803: real time    0.4809
    FORCOR:  cpu time    0.0187: real time    0.0188
    FORHAR:  cpu time    0.0044: real time    0.0045
    MIXING:  cpu time    0.0015: real time    0.0015
    OFIELD:  cpu time    0.0001: real time    0.0001

  FORCE on cell =-STRESS in cart. coord.  units (eV):
  Direction    XX          YY          ZZ          XY          YZ          ZX
  --------------------------------------------------------------------------------------
  Alpha Z    13.68505    13.68505    13.68505
  Ewald   10713.19187 10713.19241-11974.96971     0.00046     0.00018    -0.00032
  Hartree 10962.80627 10962.80629-10779.74162     0.00002     0.00001    -0.00002
  E(xc)    -114.56596  -114.56596  -116.27172     0.00000    -0.00000    -0.00000
  Local  -22061.14028-22061.14064 22369.35608    -0.00031    -0.00012     0.00021
  n-local    15.27200    15.99848    25.15785    -0.89452     0.33088     2.39167
  augment   -17.72576   -17.72569   -16.69749     0.00006     0.00000    -0.00000
  Kinetic   491.37589   490.70870   481.10395    -0.10833    -0.48374    -3.33521
  Fock        0.00000     0.00000     0.00000     0.00000     0.00000     0.00000
  -------------------------------------------------------------------------------------
  Total       2.92886     2.92886     1.62239    -0.00000     0.00000    -0.00000
  in kB      12.06874    12.06874     6.68524    -0.00000     0.00000    -0.00000
  external pressure =       10.27 kB  Pullay stress =        0.00 kB


 VOLUME and BASIS-vectors are now :
 -----------------------------------------------------------------------------
  energy-cutoff  :      400.00
  volume of cell :      388.82
      direct lattice vectors                 reciprocal lattice vectors
     3.642448451  0.000000000  0.000000000     0.274540605  0.158506092  0.000000000
    -1.821224226  3.154452891  0.000000000     0.000000000  0.317012184  0.000000000
     0.000000000  0.000000000 33.840000000     0.000000000  0.000000000  0.029550827

  length of vectors
     3.642448451  3.642448451 33.840000000     0.317012184  0.317012184  0.029550827


 FORCES acting on ions
    electron-ion (+dipol)            ewald-force                    non-local-force                 convergence-correction
 -----------------------------------------------------------------------------------------------
   0.321E-04 0.555E-04 0.232E-11   -.309E-03 -.535E-03 0.568E-13   0.417E-21 -.122E-21 -.483E-23   -.866E-09 -.150E-08 -.679E-12
   0.599E-05 0.241E-02 -.515E+03   -.583E-04 0.390E-03 0.524E+03   -.759E-16 0.293E-17 -.660E+01   0.229E-08 -.195E-09 -.200E-03
   0.208E-02 0.121E-02 0.515E+03   0.367E-03 0.145E-03 -.524E+03   0.391E-16 -.652E-17 0.660E+01   -.131E-08 0.188E-08 0.200E-03
 -----------------------------------------------------------------------------------------------
   0.212E-02 0.367E-02 0.158E-10   0.164E-13 -.118E-13 -.114E-12   -.368E-16 -.359E-17 0.000E+00   0.107E-09 0.186E-09 -.137E-11
 
 
 POSITION                                       TOTAL-FORCE (eV/Angst)
 -----------------------------------------------------------------------------------
      0.00000      0.00000      0.00000         0.000000      0.000000     -0.000000
      0.00000      2.10297      0.74351        -0.000000     -0.000000      2.019757
      1.82122      1.05148     33.09649         0.000000     -0.000000     -2.019757
 -----------------------------------------------------------------------------------
    total drift:                                0.002119      0.003670      0.000000


--------------------------------------------------------------------------------------------------------



  FREE ENERGIE OF THE ION-ELECTRON SYSTEM (eV)
  ---------------------------------------------------
  free  energy   TOTEN  =       -23.16168558 eV

  energy  without entropy=      -23.16168558  energy(sigma->0) =      -23.16168558
 


--------------------------------------------------------------------------------------------------------


    POTLOK:  cpu time    0.4199: real time    0.4206


--------------------------------------------------------------------------------------------------------


     LOOP+:  cpu time   15.9507: real time   15.9929
    4ORBIT:  cpu time    0.0000: real time    0.0000
 


 total charge     
 
# of ion       s       p       d       f       tot
--------------------------------------------------
    1        2.004   5.816   1.063   0.822   9.704
    2        1.608   3.473   0.000   0.000   5.081
    3        1.608   3.473   0.000   0.000   5.081
--------------------------------------------------
tot          5.219  12.762   1.063   0.822  19.866

 

 total amount of memory used by VASP MPI-rank0    40936. kBytes
=======================================================================

   base      :      30000. kBytes
   nonl-proj :       2304. kBytes
   fftplans  :       5126. kBytes
   grid      :       2846. kBytes
   one-center:         49. kBytes
   wavefun   :        611. kBytes
 
  
  
 General timing and accounting informations for this job:
 ========================================================
  
                  Total CPU time used (sec):       17.523
                            User time (sec):       15.854
                          System time (sec):        1.669
                         Elapsed time (sec):       18.088
  
                   Maximum memory used (kb):      160468.
                   Average memory used (kb):           0.
  
                          Minor page faults:       124701
                          Major page faults:            0
                 Voluntary context switches:         1911
