32
Lattice="14.4 0.0 0.0 0.0 16.6277 0.0 0.0 0.0 12.0" Properties=species:S:1:pos:R:3:forces:R:3 energy=-146.00447241 stress="0.02140835133574307 -0.0 -0.0 -0.0 0.02097863591544426 -0.0 -0.0 -0.0 1.4486542681175042e-05" free_energy=-146.05210386 pbc="T T T"
Si       4.80000000       1.03923000       6.00000000       0.08492800       0.00000000       0.00000000
Si       6.00000000       3.11769000       6.00000000      -0.08492800      -0.00000000      -0.00000000
Si       4.80000000       5.19616000       6.00000000       0.08492800       0.00000000      -0.00000000
Si       6.00000000       7.27462000       6.00000000      -0.08492800      -0.00000000      -0.00000000
Si       1.20000000       3.11769000       6.00000000       0.08492800      -0.00000000       0.00000000
Si       2.40000000       5.19616000       6.00000000      -0.08492800      -0.00000000       0.00000000
Si       1.20000000       7.27462000       6.00000000       0.08492800       0.00000000      -0.00000000
Si       2.40000000       1.03923000       6.00000000      -0.08492800      -0.00000000       0.00000000
Si       4.80000000       9.35308000       6.00000000       0.08492800       0.00000000       0.00000000
Si       6.00000000      11.43154000       6.00000000      -0.08492800       0.00000000       0.00000000
Si       4.80000000      13.51001000       6.00000000       0.08492800       0.00000000       0.00000000
Si       6.00000000      15.58847000       6.00000000      -0.08492800      -0.00000000      -0.00000000
Si       1.20000000      11.43154000       6.00000000       0.08492800       0.00000000       0.00000000
Si       2.40000000      13.51001000       6.00000000      -0.08492800       0.00000000       0.00000000
Si       1.20000000      15.58847000       6.00000000       0.08492800       0.00000000      -0.00000000
Si       2.40000000       9.35308000       6.00000000      -0.08492800      -0.00000000      -0.00000000
Si      12.00000000       1.03923000       6.00000000       0.08492800       0.00000000      -0.00000000
Si      13.20000000       3.11769000       6.00000000      -0.08492800      -0.00000000       0.00000000
Si      12.00000000       5.19616000       6.00000000       0.08492800       0.00000000      -0.00000000
Si      13.20000000       7.27462000       6.00000000      -0.08492800      -0.00000000      -0.00000000
Si       8.40000000       3.11769000       6.00000000       0.08492800      -0.00000000      -0.00000000
Si       9.60000000       5.19616000       6.00000000      -0.08492800      -0.00000000       0.00000000
Si       8.40000000       7.27462000       6.00000000       0.08492800       0.00000000       0.00000000
Si       9.60000000       1.03923000       6.00000000      -0.08492800      -0.00000000       0.00000000
Si      12.00000000       9.35308000       6.00000000       0.08492800       0.00000000      -0.00000000
Si      13.20000000      11.43154000       6.00000000      -0.08492800      -0.00000000      -0.00000000
Si      12.00000000      13.51001000       6.00000000       0.08492800      -0.00000000       0.00000000
Si      13.20000000      15.58847000       6.00000000      -0.08492800       0.00000000      -0.00000000
Si       8.40000000      11.43154000       6.00000000       0.08492800       0.00000000      -0.00000000
Si       9.60000000      13.51001000       6.00000000      -0.08492800      -0.00000000      -0.00000000
Si       8.40000000      15.58847000       6.00000000       0.08492800      -0.00000000       0.00000000
Si       9.60000000       9.35308000       6.00000000      -0.08492800      -0.00000000       0.00000000
